default_name
 31127
  37.6933877  36.7965043  36.3848289  37.8833877  35.5365043  37.1348289
  36.8133877  33.3165043  35.0048289  36.6233877  34.8965043  37.9448289
  35.3133877  34.9865043  37.1548289  35.9433877  35.3065043  34.7048289
  34.1733877  35.7065043  37.8248289  34.8533877  37.9165043  36.7648289
  37.2233877  37.7265043  33.9048289  34.5533877  37.2065043  38.0248289
  39.0733877  38.6765043  33.9148289  36.1633877  38.6765043  36.8248289
  34.4033877  37.6665043  34.2848289  37.4733877  37.9365043  37.2648289
  34.2133877  39.7865043  34.4648289  38.7533877  36.9565043  35.4448289
  38.3033877  37.8665043  34.4348289  35.0133877  34.0165043  36.1548289
  36.0033877  34.2265043  35.1948289  33.7233877  38.6165043  36.1948289
  33.8333877  38.6565043  34.7248289  36.3733877  39.2865043  35.9348289
  35.9933877  39.4565043  37.5848289  37.4633877  37.5065043  38.2748289
  38.2833877  38.6765043  37.2848289  38.8033877  36.0465043  34.8448289
  39.6533877  37.3465043  35.9448289  35.0833877  32.9965043  36.5448289
  34.0733877  34.2065043  35.6248289  33.5233877  39.6065043  36.6148289
  32.8833877  37.9165043  36.3148289  38.2033877  34.7765043  36.4148289
  38.7133877  35.7165043  37.8448289  36.5333877  35.3665043  38.9248289
  36.8933877  33.8865043  38.2548289  33.8733877  35.1165043  38.6948289
  33.2833877  35.7765043  37.1748289  35.3433877  37.3265043  38.7748289
  33.7033877  37.6565043  38.5448289  35.6933877  36.6265043  33.1848289
  45.6160010  27.4080010  55.2625620  67.1586580  63.9151780  62.5621610
  67.0780630  63.0006390  62.2913320  66.7451000  64.4118850  61.8561320
  65.2904620  65.6930800  64.4430880  64.5146720  65.2131240  64.7329450
  65.9417550  65.0136450  64.2687040  59.3070450  66.0050610  65.3206640
  58.4755330  65.7499320  65.7203150  59.9151430  66.0761380  66.0564560
  69.3112050  70.0990990  63.2230010  68.8493580  69.3278230  63.5517180
  70.1237600  70.1257060  63.7282460  59.2871710  70.0390700  65.5164660
  59.5899750  69.1488440  65.3374880  60.0315300  70.5960920  65.2886910
  57.7162400  60.9652500  59.1049030  56.8279100  61.3068470  59.0028910
  58.0003590  60.7652820  58.2129860  55.6795410  63.5658150  64.9888730
  56.2511520  62.7980350  64.9892370  55.6796950  63.8646910  64.0795340
  64.7313610  68.3687990  64.4501040  64.6621890  67.4277930  64.2890170
  65.4933470  68.4589400  65.0223610  56.9220280  58.9742510  66.7757660
  56.7423120  58.0768260  67.0560420  56.5200360  59.5214380  67.4504610
  65.7618780  61.1758370  64.6769970  66.1383600  60.3030250  64.5643640
  65.6638290  61.5117070  63.7860410  59.8923790  59.5484000  60.1387410
  59.9990540  60.4487730  60.4456170  58.9816150  59.5001970  59.8482060
  69.5442900  58.6708810  61.6098310  70.3652520  58.1805380  61.6523790
  69.5776980  59.2606470  62.3630150  57.5406950  61.4703010  65.3840000
  58.2217060  61.7341380  66.0027400  57.2255000  60.6303880  65.7178010
  61.7331520  62.5170370  64.4712590  62.2409740  63.0151340  65.1117610
  62.2644760  61.7405570  64.2951950  60.0167620  57.1568930  68.7376010
  60.0186060  57.6741320  67.9321910  59.1871930  56.6799110  68.7145940
  66.4038710  67.2688240  60.2365910  65.7855980  67.7337690  59.6728630
  66.9161960  67.9615720  60.6535420  61.2670470  66.7964110  66.9149510
  60.9339850  67.4233030  67.5570580  61.4437150  67.3225990  66.1351180
  69.7804380  60.6109190  64.3825850  69.0759950  60.8994080  64.9628960
  70.1416540  61.4209300  64.0225410  59.6982950  58.8678890  66.7446460
  60.0399760  59.7120940  66.4500330  58.7598760  59.0162630  66.8611800
  60.4789570  68.7644910  68.7298690  61.0963570  69.4395990  68.4483140
  59.6182690  69.1732890  68.6386190  55.7721910  67.9544770  57.6105540
  55.3949890  68.4431870  56.8790440  56.0294980  68.6270050  58.2412070
  63.3810840  56.3561160  63.0691050  63.6885820  55.8008050  62.3526550
  62.4511540  56.4905620  62.8864040  70.2271320  68.7944670  60.4488680
  70.1167650  67.8519000  60.5738100  70.2239570  69.1560310  61.3351440
  68.3311340  66.9758290  66.6881120  68.7480130  66.7618400  65.8534580
  69.0551160  67.2331080  67.2589740  65.7691600  64.4209990  59.8051170
  64.8420880  64.3547370  60.0339640  65.9216420  65.3590120  59.6906410
  65.7560680  60.6926990  56.8018330  64.8164350  60.8540950  56.8870790
  66.0743940  61.4112670  56.2554320  69.7988890  65.9830290  60.3086420
  69.1801310  65.6449840  59.6612720  69.7813340  65.3390050  61.0165610
  69.2415450  62.1614830  67.7252230  68.8286630  62.9868540  67.9792220
  68.5091400  61.5759870  67.5328590  61.3748240  64.9474730  62.5870900
  60.9705240  64.2351980  62.0916800  61.4611360  64.6027970  63.4758940
  61.8429940  68.6342290  64.7510110  61.5458230  68.0287760  64.0717890
  62.7929760  68.6719600  64.6399470  60.0876860  61.7217940  66.3669940
  60.6391450  61.8313280  65.5923190  60.6020370  62.0955540  67.0825170
  67.9753590  65.2217100  57.3159170  68.4146870  64.3839530  57.1696990
  68.6882010  65.8546500  57.4023310  66.0848970  70.1613170  61.2840410
  66.5244880  70.9037500  60.8695800  66.0235860  70.4039740  62.2079370
  58.0752870  63.8419710  60.0877550  57.9550470  64.5681800  59.4758820
  57.7653760  63.0722620  59.6105460  55.7138240  67.0134850  65.8946190
  55.7918660  67.1483620  64.9501910  56.3279920  66.3050740  66.0874310
  56.9585870  68.7135040  62.3052370  56.5513950  68.8549630  61.4505970
  57.8498880  68.4295200  62.1023580  68.4545280  70.6569850  57.2001420
  67.7610440  70.6547140  56.5403700  69.1968140  70.2329170  56.7695590
  55.7697760  68.0549020  68.4340650  55.9328800  67.5854380  67.6160020
  56.2350210  67.5472580  69.0989490  60.5416530  57.1854780  63.4701220
  60.0984680  57.9664320  63.1385740  61.1001520  57.5084670  64.1772160
  64.8286340  60.0523300  69.0736540  64.3665710  60.2606320  69.8856480
  64.4264450  59.2382650  68.7707210  63.6575350  56.8065480  58.3507050
  63.0329530  56.8025350  59.0760360  63.5705470  55.9396440  57.9543020
  62.5792430  57.7302110  65.3290820  62.8764760  58.6364940  65.2482840
  63.1277990  57.2420890  64.7150390  60.3330750  62.3088350  61.1982470
  60.1071670  62.0925520  62.1029090  59.5523280  62.7416810  60.8528440
  67.5628510  62.3151720  59.7973120  66.9637400  63.0387520  59.6136740
  68.1108120  62.2528500  59.0149570  66.1693380  60.9515260  61.8276400
  66.5622950  61.2687460  61.0145090  66.5310230  60.0727140  61.9420920
  57.9040500  59.6187600  70.0176520  57.5103890  60.4662810  70.2249300
  57.2158900  58.9813970  70.2085160  55.2057550  57.5416060  64.0506600
  54.9170600  58.1118920  64.7631580  55.9503310  57.0620510  64.4137830
  55.3927780  61.4836180  55.2609320  55.3102450  62.4266940  55.4024310
  55.0410840  61.3411090  54.3821670  66.7548520  63.5421010  65.9227180
  66.0229640  64.0507820  66.2717280  66.3572860  62.7250990  65.6215960
  63.1925910  60.2175210  64.3279670  63.1961970  59.7765160  63.4784210
  64.0877030  60.5392540  64.4351490  59.0428290  60.1001700  63.2873880
  58.7028340  60.5776930  64.0440930  58.2805610  59.6466820  62.9274980
  63.2546060  61.2187290  57.3186430  63.3758880  61.1773770  58.2672250
  62.8694570  62.0811440  57.1633160  67.2174430  58.9954690  65.3350120
  67.2347170  59.4463340  66.1791970  66.9690010  58.0960330  65.5483560
  62.2667560  63.5288430  56.7169730  61.6984460  63.0806680  56.0905640
  62.9756560  63.8881210  56.1834880  63.4933880  64.2776990  66.0745080
  63.8604010  63.8035560  66.8206420  63.3038940  65.1518560  66.4153420
  56.3574370  59.0220680  62.2038550  56.0721290  58.6576350  63.0417170
  56.2953230  58.2901140  61.5901690  61.2833250  63.3185630  68.3929290
  60.9790320  64.1977610  68.6179650  62.2379710  63.3785420  68.4286730
  59.8115040  67.5246620  58.9896140  59.0377300  66.9844240  58.8294860
  60.5409670  67.0053230  58.6513900  66.0312960  57.9149940  58.9251920
  65.2177570  57.4163110  58.8497230  65.8374910  58.7548190  58.5088270
  68.7461350  62.2869590  57.2214080  69.6340970  62.5986820  57.0465420
  68.7166440  61.4141840  56.8294660  59.8552440  67.1927000  62.6274950
  60.3731110  66.3895260  62.5731840  59.4036460  67.1306140  63.4691780
  64.7421940  68.4593280  57.9002250  65.0837640  69.2035510  57.4045570
  63.9134650  68.7724400  58.2627080  57.3396980  64.1588370  69.5400650
  56.9811920  64.8242220  70.1273990  57.0451540  63.3271920  69.9113270
  67.6249350  67.7809120  63.2647760  67.9773170  67.1837250  62.6049130
  66.7411680  67.4553350  63.4356010  63.7112630  68.5406810  60.6718170
  64.3983760  69.0876020  61.0525760  62.9245050  69.0847540  60.7067780
  55.8505030  64.1579630  56.1635250  56.7199880  64.4404430  56.4471170
  55.3595350  64.9715500  56.0484060  63.0139840  65.5452840  60.2843530
  63.4702620  66.3558090  60.5103720  62.6628050  65.2275980  61.1162020
  65.3172450  71.0559180  67.5135830  65.9614670  71.2618560  68.1909250
  65.6801890  70.2947580  67.0606680  58.9151620  55.8890490  60.7566050
  58.7866250  55.8808390  61.7050970  58.0913640  56.2273580  60.4057060
  66.5904530  69.0591530  66.2313280  67.2326760  68.3584690  66.3445450
  67.1153880  69.8389970  66.0510170  70.4360250  69.3440150  55.9552420
  70.2097830  68.6270590  56.5477060  70.0456450  69.0952590  55.1174170
  68.3642150  69.8586430  69.4349340  68.6998390  70.4453120  70.1127260
  67.4442490  69.7279140  69.6647130  70.0176500  67.2612090  57.6166580
  69.7298200  67.7224780  58.4044460  70.8128670  66.8009860  57.8850800
  62.2344900  70.7538210  57.5470550  62.2255000  71.4867900  56.9315060
  61.3143260  70.5069790  57.6397510  57.8351540  65.9753100  58.2917310
  57.2279490  66.7152000  58.3012610  58.3100890  66.0652460  57.4655510
  67.4084330  60.1403920  67.9674200  67.7765150  59.3199130  68.2953770
  66.5482530  60.2005810  68.3829850  70.7746360  59.0960860  58.7761760
  70.1459520  59.2006530  58.0619990  70.2798280  59.3157640  59.5655640
  65.2204500  70.8166450  56.2095740  65.3216480  70.6130440  55.2797720
  64.3206240  70.5624730  56.4143520  62.7430390  61.3746810  60.1919640
  62.0346540  61.8433150  60.6333250  63.0274870  60.7168820  60.8264830
  64.3686320  62.7943510  68.1912170  64.8671570  63.2689330  68.8564020
  64.5109270  61.8707030  68.3982200  66.7745820  58.0997470  61.6315430
  66.6513600  58.1183600  60.6824940  67.7230380  58.1476410  61.7513830
  60.9465410  59.6831890  57.5670350  61.7955940  60.1202040  57.5010540
  60.5796680  59.9952150  58.3942410  69.8675190  64.2544650  62.4801920
  68.9265330  64.2694880  62.6549610  70.1819260  63.4680610  62.9262220
  59.8456830  65.9364250  56.0405880  60.6120100  65.8245610  56.6031310
  59.9231520  65.2402220  55.3882650  58.5403590  63.3689320  56.7238770
  58.6207180  62.4216830  56.8356170  59.4323340  63.6996200  56.8299430
  56.2263780  69.5858280  59.7014820  55.3003560  69.8279420  59.6920230
  56.6920210  70.4132540  59.5799570  62.9698010  67.9118430  55.5141230
  62.8648650  67.2970780  56.2402610  62.8022230  67.3884320  54.7304240
  66.2100740  66.9738460  56.1183220  65.6610840  67.4207760  56.7625960
  66.8320000  66.4687710  56.6420890  61.8775860  65.9329380  58.0148520
  62.2992280  65.7669250  58.8579910  62.0026700  65.1229610  57.5203660
  64.3903500  64.9566990  55.2625620  64.9109160  64.2416010  54.8966770
  65.0371900  65.5952860  55.5626130  63.2937020  57.4361540  67.9344180
  62.8454320  57.4585800  67.0889730  62.6602220  57.0380560  68.5314480
  63.6996570  66.3315870  68.5556620  64.1184680  67.1748600  68.3832860
  62.7805200  66.4687910  68.3263400  68.3748370  64.6169240  68.5156970
  67.8483590  65.1411860  67.9122110  68.7179710  65.2496630  69.1466700
  60.7734760  62.0062610  54.9606680  60.5723820  61.1429970  55.3220020
  60.6026810  61.9195970  54.0228280  68.2523070  56.8170840  57.4893560
  68.5325360  55.9738740  57.8452980  67.4788800  57.0493950  58.0032310
  59.5717560  59.1063230  54.9484560  59.8743460  59.1130660  54.0403710
  60.3112150  58.7561090  55.4452220  62.7902490  58.0497850  55.9340760
  62.4424490  57.3721840  55.3543210  62.9915260  57.5887360  56.7484150
  58.5947690  68.4105650  55.7814360  59.0322560  68.9535320  56.4371940
  59.0795420  67.5852600  55.7910700  55.8093490  71.1994680  63.2334620
  56.1396500  70.3315740  63.0013260  56.2384490  71.4053200  64.0639580
  60.4055410  69.5303690  60.8936590  60.1050950  69.4068660  61.7940500
  60.2992900  68.6712280  60.4852320  56.1308130  64.5785500  62.3305130
  55.4756970  64.3097140  61.6864830  56.9686080  64.4689980  61.8807110
  69.0798570  59.3726790  56.5523620  69.4983450  59.1857770  55.7120280
  68.7734630  58.5205840  56.8626550  57.1684060  64.9638070  66.8708470
  57.5357100  64.8765470  67.7504490  56.5994880  64.2004620  66.7715330
  55.3446210  61.7884430  58.2730460  54.4410290  62.0514630  58.0982120
  55.8286830  62.0595600  57.4930420  57.8873420  60.8449970  56.1824840
  58.5965120  60.4233190  55.6972120  57.1713360  60.9125200  55.5508190
  57.5347580  56.8989300  55.2227490  58.2575710  57.4398240  55.5408710
  57.8072100  56.6252720  54.3469030  57.2239770  56.1495490  65.1250110
  57.8715960  55.5992870  64.6845270  57.6441610  56.4038640  65.9465920
  56.9771770  56.3051160  67.8675430  56.6286590  56.7614980  68.6333610
  56.6459470  55.4108290  67.9497860  62.2842170  71.0330350  67.6338340
  62.0433530  71.3004910  66.7468860  63.2244810  71.2036080  67.6889200
  67.8679190  55.7165240  67.3556430  66.9939030  56.0500350  67.1529360
  67.7589940  55.2438420  68.1808300  68.7751170  57.9236110  68.7398150
  68.4464530  57.1087870  68.3599880  69.7233470  57.8805920  68.6163840
  58.0536400  69.7891390  68.1034440  57.3270460  69.1696680  68.0360390
  58.1145550  70.1832000  67.2332520  65.6154010  56.6335080  66.2949340
  64.8325800  57.1080580  66.5746100  65.3216940  55.7289910  66.1862520
  70.1675080  57.3358180  64.3398430  70.6083170  57.2803280  63.4920030
  69.8982670  58.2516190  64.4108610  56.9594420  56.9382560  58.8163060
  57.7173780  57.0511440  58.2427090  56.4971590  57.7751760  58.7706490
  63.5008230  59.0521830  61.8065370  62.6882740  58.6778720  61.4661250
  64.0049870  58.2966910  62.1086560  68.0033210  55.7164280  63.0448440
  68.6062580  56.2884490  63.5196960  67.2626200  56.2803720  62.8222340
  59.3319570  57.4646610  57.3565030  59.8612330  56.6776410  57.2272980
  59.9647890  58.1437800  57.5900560  61.5257410  57.2021750  60.4110420
  60.8960150  56.5009060  60.5780550  60.9862550  57.9625880  60.1943580
  59.7036860  69.8646120  57.6376920  59.0745740  70.3331220  58.1862750
  59.8184690  69.0195340  58.0723110  67.1586580  63.9151780  43.7878120
  67.0780630  63.0006390  43.5169830  66.7451000  64.4118850  43.0817830
  65.2904620  65.6930800  45.6687390  64.5146720  65.2131240  45.9585960
  65.9417550  65.0136450  45.4943550  59.3070450  66.0050610  46.5463150
  58.4755330  65.7499320  46.9459660  59.9151430  66.0761380  47.2821070
  69.3112050  70.0990990  44.4486520  68.8493580  69.3278230  44.7773690
  70.1237600  70.1257060  44.9538970  59.2871710  70.0390700  46.7421170
  59.5899750  69.1488440  46.5631390  60.0315300  70.5960920  46.5143420
  57.7162400  60.9652500  40.3305540  56.8279100  61.3068470  40.2285420
  58.0003590  60.7652820  39.4386370  55.6795410  63.5658150  46.2145240
  56.2511520  62.7980350  46.2148880  55.6796950  63.8646910  45.3051850
  64.7313610  68.3687990  45.6757550  64.6621890  67.4277930  45.5146680
  65.4933470  68.4589400  46.2480120  56.9220280  58.9742510  48.0014170
  56.7423120  58.0768260  48.2816930  56.5200360  59.5214380  48.6761120
  65.7618780  61.1758370  45.9026480  66.1383600  60.3030250  45.7900150
  65.6638290  61.5117070  45.0116920  59.8923790  59.5484000  41.3643920
  59.9990540  60.4487730  41.6712680  58.9816150  59.5001970  41.0738570
  69.5442900  58.6708810  42.8354820  70.3652520  58.1805380  42.8780300
  69.5776980  59.2606470  43.5886660  57.5406950  61.4703010  46.6096510
  58.2217060  61.7341380  47.2283910  57.2255000  60.6303880  46.9434520
  61.7331520  62.5170370  45.6969100  62.2409740  63.0151340  46.3374120
  62.2644760  61.7405570  45.5208460  60.0167620  57.1568930  49.9632520
  60.0186060  57.6741320  49.1578420  59.1871930  56.6799110  49.9402450
  66.4038710  67.2688240  41.4622420  65.7855980  67.7337690  40.8985140
  66.9161960  67.9615720  41.8791930  61.2670470  66.7964110  48.1406020
  60.9339850  67.4233030  48.7827090  61.4437150  67.3225990  47.3607690
  69.7804380  60.6109190  45.6082360  69.0759950  60.8994080  46.1885470
  70.1416540  61.4209300  45.2481920  59.6982950  58.8678890  47.9702970
  60.0399760  59.7120940  47.6756840  58.7598760  59.0162630  48.0868310
  60.4789570  68.7644910  49.9555200  61.0963570  69.4395990  49.6739650
  59.6182690  69.1732890  49.8642700  55.7721910  67.9544770  38.8362050
  55.3949890  68.4431870  38.1046950  56.0294980  68.6270050  39.4668580
  63.3810840  56.3561160  44.2947560  63.6885820  55.8008050  43.5783060
  62.4511540  56.4905620  44.1120550  70.2271320  68.7944670  41.6745190
  70.1167650  67.8519000  41.7994610  70.2239570  69.1560310  42.5607950
  68.3311340  66.9758290  47.9137630  68.7480130  66.7618400  47.0791090
  69.0551160  67.2331080  48.4846250  65.7691600  64.4209990  41.0307680
  64.8420880  64.3547370  41.2596150  65.9216420  65.3590120  40.9162920
  65.7560680  60.6926990  38.0274840  64.8164350  60.8540950  38.1127300
  66.0743940  61.4112670  37.4810830  69.7988890  65.9830290  41.5342930
  69.1801310  65.6449840  40.8869230  69.7813340  65.3390050  42.2422120
  69.2415450  62.1614830  48.9508740  68.8286630  62.9868540  49.2048730
  68.5091400  61.5759870  48.7585100  61.3748240  64.9474730  43.8127410
  60.9705240  64.2351980  43.3173310  61.4611360  64.6027970  44.7015450
  61.8429940  68.6342290  45.9766620  61.5458230  68.0287760  45.2974400
  62.7929760  68.6719600  45.8655980  60.0876860  61.7217940  47.5926450
  60.6391450  61.8313280  46.8179700  60.6020370  62.0955540  48.3081680
  60.9348370  68.3723980  52.6274420  60.0376900  68.5963950  52.8747820
  60.9601240  68.4958920  51.6785820  67.9753590  65.2217100  38.5415680
  68.4146870  64.3839530  38.3953500  68.6882010  65.8546500  38.6279820
  59.7619590  65.2437300  51.2031790  59.6227360  66.1160100  51.5719190
  58.8800950  64.9010110  51.0579730  66.0848970  70.1613170  42.5096920
  66.5244880  70.9037500  42.0952310  66.0235860  70.4039740  43.4335880
  58.0752870  63.8419710  41.3134060  57.9550470  64.5681800  40.7015330
  57.7653760  63.0722620  40.8361970  55.7138240  67.0134850  47.1202700
  55.7918660  67.1483620  46.1758420  56.3279920  66.3050740  47.3130820
  56.9585870  68.7135040  43.5308880  56.5513950  68.8549630  42.6762480
  57.8498880  68.4295200  43.3280090  68.4545280  70.6569850  38.4257930
  67.7610440  70.6547140  37.7660210  69.1968140  70.2329170  37.9952100
  55.7697760  68.0549020  49.6597160  55.9328800  67.5854380  48.8416530
  56.2350210  67.5472580  50.3246000  60.5416530  57.1854780  44.6957730
  60.0984680  57.9664320  44.3642250  61.1001520  57.5084670  45.4028670
  64.8286340  60.0523300  50.2993050  64.3665710  60.2606320  51.1112990
  64.4264450  59.2382650  49.9963720  69.8290850  61.2732250  51.4289710
  68.9784440  60.9738000  51.7498780  69.6692640  61.5174260  50.5173530
  66.9240560  62.7734000  53.5288500  67.2493970  61.9397750  53.1890730
  67.7120890  63.2962520  53.6766830  63.6575350  56.8065480  39.5763560
  63.0329530  56.8025350  40.3016870  63.5705470  55.9396440  39.1799530
  62.5792430  57.7302110  46.5547330  62.8764760  58.6364940  46.4739350
  63.1277990  57.2420890  45.9406900  60.3330750  62.3088350  42.4238980
  60.1071670  62.0925520  43.3285600  59.5523280  62.7416810  42.0784950
  67.5628510  62.3151720  41.0229630  66.9637400  63.0387520  40.8393250
  68.1108120  62.2528500  40.2406080  62.7729960  63.2073930  53.0899250
  62.6773560  62.2668660  52.9399650  63.6161940  63.4289000  52.6947320
  66.1693380  60.9515260  43.0532910  66.5622950  61.2687460  42.2401600
  66.5310230  60.0727140  43.1677430  57.9040500  59.6187600  51.2433030
  57.5103890  60.4662810  51.4505810  57.2158900  58.9813970  51.4341670
  64.4785550  59.7022570  54.3129770  63.7883870  59.5094770  54.9475860
  65.2217850  59.9857210  54.8454070  55.2057550  57.5416060  45.2763110
  54.9170600  58.1118920  45.9888090  55.9503310  57.0620510  45.6394340
  55.3927780  61.4836180  36.4865830  55.3102450  62.4266940  36.6280820
  55.0410840  61.3411090  35.6078180  66.7548520  63.5421010  47.1483690
  66.0229640  64.0507820  47.4973790  66.3572860  62.7250990  46.8472470
  63.1925910  60.2175210  45.5536180  63.1961970  59.7765160  44.7040720
  64.0877030  60.5392540  45.6608000  59.0428290  60.1001700  44.5130390
  58.7028340  60.5776930  45.2697440  58.2805610  59.6466820  44.1531490
  63.2546060  61.2187290  38.5442940  63.3758880  61.1773770  39.4928760
  62.8694570  62.0811440  38.3889670  67.2174430  58.9954690  46.5606630
  67.2347170  59.4463340  47.4048480  66.9690010  58.0960330  46.7740070
  62.2667560  63.5288430  37.9426240  61.6984460  63.0806680  37.3162150
  62.9756560  63.8881210  37.4091390  70.6445180  56.4086870  52.3993010
  70.9690950  55.6776530  52.9250990  70.6801690  56.0900510  51.4974000
  57.3436740  67.4300450  51.8192970  56.9591530  66.7894120  52.4175930
  57.6548930  68.1336570  52.3887700  63.4933880  64.2776990  47.3001590
  63.8604010  63.8035560  48.0462930  63.3038940  65.1518560  47.6409930
  56.3574370  59.0220680  43.4295060  56.0721290  58.6576350  44.2673680
  56.2953230  58.2901140  42.8158200  61.2833250  63.3185630  49.6185800
  60.9790320  64.1977610  49.8436160  62.2379710  63.3785420  49.6543240
  59.8115040  67.5246620  40.2152650  59.0377300  66.9844240  40.0551370
  60.5409670  67.0053230  39.8770410  66.0312960  57.9149940  40.1508430
  65.2177570  57.4163110  40.0753740  65.8374910  58.7548190  39.7344780
  65.9521820  66.5921040  51.8948040  65.8859130  65.6716710  51.6405630
  65.3226960  66.6896480  52.6092680  68.7461350  62.2869590  38.4470590
  69.6340970  62.5986820  38.2721930  68.7166440  61.4141840  38.0551170
  59.8552440  67.1927000  43.8531460  60.3731110  66.3895260  43.7988350
  59.4036460  67.1306140  44.6948290  64.7421940  68.4593280  39.1258760
  65.0837640  69.2035510  38.6302080  63.9134650  68.7724400  39.4883590
  57.3396980  64.1588370  50.7657160  56.9811920  64.8242220  51.3530500
  57.0451540  63.3271920  51.1369780  60.5410100  64.6172610  53.6496710
  60.2410240  64.7629790  52.7524530  61.3121340  64.0577900  53.5570100
  65.8838550  69.4141610  51.6451840  65.8983090  68.4822570  51.4270750
  65.1763650  69.5001370  52.2841610  67.6249350  67.7809120  44.4904270
  67.9773170  67.1837250  43.8305640  66.7411680  67.4553350  44.6612520
  63.7112630  68.5406810  41.8974680  64.3983760  69.0876020  42.2782270
  62.9245050  69.0847540  41.9324290  55.8505030  64.1579630  37.3891760
  56.7199880  64.4404430  37.6727680  55.3595350  64.9715500  37.2740570
  63.0139840  65.5452840  41.5100040  63.4702620  66.3558090  41.7360230
  62.6628050  65.2275980  42.3418530  65.3172450  71.0559180  48.7392340
  65.9614670  71.2618560  49.4165760  65.6801890  70.2947580  48.2863190
  58.9151620  55.8890490  41.9822560  58.7866250  55.8808390  42.9307480
  58.0913640  56.2273580  41.6313570  66.5904530  69.0591530  47.4569790
  67.2326760  68.3584690  47.5701960  67.1153880  69.8389970  47.2766680
  70.4360250  69.3440150  37.1808930  70.2097830  68.6270590  37.7733570
  70.0456450  69.0952590  36.3430680  68.3642150  69.8586430  50.6605850
  68.6998390  70.4453120  51.3383770  67.4442490  69.7279140  50.8903640
  55.9145550  57.6481610  51.4429260  55.2004070  57.8478530  52.0481870
  56.3340590  56.8721180  51.8144060  70.0176500  67.2612090  38.8423090
  69.7298200  67.7224780  39.6300970  70.8128670  66.8009860  39.1107310
  64.1930730  69.9077760  53.8293910  63.8727600  69.1887000  54.3739600
  63.5189090  70.5832830  53.9029970  62.2344900  70.7538210  38.7727060
  62.2255000  71.4867900  38.1571570  61.3143260  70.5069790  38.8654020
  57.8351540  65.9753100  39.5173820  57.2279490  66.7152000  39.5269120
  58.3100890  66.0652460  38.6912020  67.4084330  60.1403920  49.1930710
  67.7765150  59.3199130  49.5210280  66.5482530  60.2005810  49.6086360
  70.7746360  59.0960860  40.0018270  70.1459520  59.2006530  39.2876500
  70.2798280  59.3157640  40.7912150  65.2204500  70.8166450  37.4352250
  65.3216480  70.6130440  36.5054230  64.3206240  70.5624730  37.6400030
  62.7430390  61.3746810  41.4176150  62.0346540  61.8433150  41.8589760
  63.0274870  60.7168820  42.0521340  64.3686320  62.7943510  49.4168680
  64.8671570  63.2689330  50.0820530  64.5109270  61.8707030  49.6238710
  66.7745820  58.0997470  42.8571940  66.6513600  58.1183600  41.9081450
  67.7230380  58.1476410  42.9770340  60.9465410  59.6831890  38.7926860
  61.7955940  60.1202040  38.7267050  60.5796680  59.9952150  39.6198920
  69.8675190  64.2544650  43.7058430  68.9265330  64.2694880  43.8806120
  70.1819260  63.4680610  44.1518730  59.8456830  65.9364250  37.2662390
  60.6120100  65.8245610  37.8287820  59.9231520  65.2402220  36.6139160
  58.5403590  63.3689320  37.9495280  58.6207180  62.4216830  38.0612680
  59.4323340  63.6996200  38.0555940  56.2263780  69.5858280  40.9271330
  55.3003560  69.8279420  40.9176740  56.6920210  70.4132540  40.8056080
  67.1841210  68.8110650  54.1890810  66.5779370  68.8342250  53.4486560
  66.8795320  68.0793690  54.7258060  56.0674390  65.1904240  53.1851450
  56.5713410  64.6111520  53.7567680  55.3281810  65.4744470  53.7227820
  62.9698010  67.9118430  36.7397740  62.8648650  67.2970780  37.4659120
  62.8022230  67.3884320  35.9560750  63.1212330  66.5975230  52.7186970
  62.3558000  67.1660230  52.6341640  63.3028290  66.3051440  51.8255200
  66.2100740  66.9738460  37.3439730  65.6610840  67.4207760  37.9882470
  66.8320000  66.4687710  37.8677400  70.2635680  68.3280560  53.2761990
  71.0045150  68.6656320  52.7729450  69.5008360  68.4972620  52.7231760
  58.0997470  63.3333830  54.0801520  58.1402810  63.0347700  54.9886750
  58.9542970  63.7341440  53.9209040  61.8775860  65.9329380  39.2405030
  62.2992280  65.7669250  40.0836420  62.0026700  65.1229610  38.7460170
  60.0403280  61.9125930  52.0476010  59.5099740  61.4216880  51.4199350
  60.7091350  62.3410130  51.5133940  64.3903500  64.9566990  36.4882130
  64.9109160  64.2416010  36.1223280  65.0371900  65.5952860  36.7882640
  68.9381340  66.3795390  51.8117200  69.3522360  66.5340470  52.6607620
  68.0032340  66.5050610  51.9742980  69.4103510  63.7191550  53.8156350
  69.9924280  62.9643870  53.7276830  69.5865280  64.2498990  53.0387830
  60.5275580  58.8788300  52.1273300  60.4332450  58.2609050  51.4024170
  59.9472970  59.6054590  51.9003210  63.2937020  57.4361540  49.1600690
  62.8454320  57.4585800  48.3146240  62.6602220  57.0380560  49.7570990
  63.6996570  66.3315870  49.7813130  64.1184680  67.1748600  49.6089370
  62.7805200  66.4687910  49.5519910  66.0360470  64.0632050  51.1650970
  66.1556680  63.4673190  51.9045810  66.8954470  64.1001740  50.7452270
  68.3748370  64.6169240  49.7413480  67.8483590  65.1411860  49.1378620
  68.7179710  65.2496630  50.3723210  60.7734760  62.0062610  36.1863190
  60.5723820  61.1429970  36.5476530  60.6026810  61.9195970  35.2484790
  62.8029240  60.6053400  52.4226790  63.3928930  60.2969250  53.1104610
  61.9849480  60.1333150  52.5786690  67.6222670  60.2219210  52.6559810
  66.9338190  59.5600750  52.5909800  68.3428690  59.7757480  53.1008270
  68.2523070  56.8170840  38.7150070  68.5325360  55.9738740  39.0709490
  67.4788800  57.0493950  39.2288820  59.5717560  59.1063230  36.1741070
  59.8743460  59.1130660  35.2660220  60.3112150  58.7561090  36.6708730
  62.7902490  58.0497850  37.1597270  62.4424490  57.3721840  36.5799720
  62.9915260  57.5887360  37.9740660  58.5947690  68.4105650  37.0070870
  59.0322560  68.9535320  37.6628450  59.0795420  67.5852600  37.0167210
  55.8093490  71.1994680  44.4591130  56.1396500  70.3315740  44.2269770
  56.2384490  71.4053200  45.2896090  60.4055410  69.5303690  42.1193100
  60.1050950  69.4068660  43.0197010  60.2992900  68.6712280  41.7108830
  56.1308130  64.5785500  43.5561640  55.4756970  64.3097140  42.9121340
  56.9686080  64.4689980  43.1063620  69.0798570  59.3726790  37.7780130
  69.4983450  59.1857770  36.9376790  68.7734630  58.5205840  38.0883060
  57.1684060  64.9638070  48.0964980  57.5357100  64.8765470  48.9761000
  56.5994880  64.2004620  47.9971840  56.7200060  61.8747160  52.0023400
  55.8256110  61.8413920  52.3417110  57.2597610  62.0733950  52.7674650
  55.3446210  61.7884430  39.4986970  54.4410290  62.0514630  39.3238630
  55.8286830  62.0595600  38.7186930  57.8873420  60.8449970  37.4081350
  58.5965120  60.4233190  36.9228630  57.1713360  60.9125200  36.7764700
  57.5347580  56.8989300  36.4484000  58.2575710  57.4398240  36.7665220
  57.8072100  56.6252720  35.5725540  57.2239770  56.1495490  46.3506620
  57.8715960  55.5992870  45.9101780  57.6441610  56.4038640  47.1722430
  56.9771770  56.3051160  49.0931940  56.6286590  56.7614980  49.8590120
  56.6459470  55.4108290  49.1754370  58.5836140  69.4770760  53.2585130
  58.5405770  69.1063670  54.1399590  58.7147150  70.4148330  53.3986950
  62.2842170  71.0330350  48.8594850  62.0433530  71.3004910  47.9725370
  63.2244810  71.2036080  48.9145710  64.4896590  57.4963040  52.6151360
  64.4285480  58.0884870  53.3646770  65.4296970  57.3889000  52.4701620
  67.1271150  57.1533100  52.2543650  67.7411560  57.4712390  51.5924730
  67.6720710  56.6681690  52.8739510  57.6492410  55.8327360  52.3682710
  58.1975400  55.6515410  51.6048820  57.7147720  55.0421470  52.9039020
  67.8679190  55.7165240  48.5812940  66.9939030  56.0500350  48.3785870
  67.7589940  55.2438420  49.4064810  68.7751170  57.9236110  49.9654660
  68.4464530  57.1087870  49.5856390  69.7233470  57.8805920  49.8420350
  58.0536400  69.7891390  49.3290950  57.3270460  69.1696680  49.2616900
  58.1145550  70.1832000  48.4589030  65.6154010  56.6335080  47.5205850
  64.8325800  57.1080580  47.8002610  65.3216940  55.7289910  47.4119030
  70.1675080  57.3358180  45.5654940  70.6083170  57.2803280  44.7176540
  69.8982670  58.2516190  45.6365120  56.9594420  56.9382560  40.0419570
  57.7173780  57.0511440  39.4683600  56.4971590  57.7751760  39.9963000
  63.5008230  59.0521830  43.0321880  62.6882740  58.6778720  42.6917760
  64.0049870  58.2966910  43.3343070  68.0033210  55.7164280  44.2704950
  68.6062580  56.2884490  44.7453470  67.2626200  56.2803720  44.0478850
  59.3319570  57.4646610  38.5821540  59.8612330  56.6776410  38.4529490
  59.9647890  58.1437800  38.8157070  61.5257410  57.2021750  41.6366930
  60.8960150  56.5009060  41.8037060  60.9862550  57.9625880  41.4200090
  61.6512970  56.4805730  54.0719420  61.3697240  56.9839330  53.3080240
  62.0332670  55.6827480  53.7061550  59.7036860  69.8646120  38.8633430
  59.0745740  70.3331220  39.4119260  59.8184690  69.0195340  39.2979620
  68.2528430  55.8959310  54.6499890  68.1393880  56.2153920  55.5451410
  69.0698170  56.2971820  54.3537170  67.1586580  63.9151780  25.0134630
  67.0780630  63.0006390  24.7426340  66.7451000  64.4118850  24.3074340
  65.2904620  65.6930800  26.8943900  64.5146720  65.2131240  27.1842470
  65.9417550  65.0136450  26.7200060  59.3070450  66.0050610  27.7719660
  58.4755330  65.7499320  28.1716170  59.9151430  66.0761380  28.5077580
  69.3112050  70.0990990  25.6743030  68.8493580  69.3278230  26.0030200
  70.1237600  70.1257060  26.1795480  59.2871710  70.0390700  27.9677680
  59.5899750  69.1488440  27.7887900  60.0315300  70.5960920  27.7399930
  57.7162400  60.9652500  21.5562050  56.8279100  61.3068470  21.4541930
  58.0003590  60.7652820  20.6642880  55.6795410  63.5658150  27.4401750
  56.2511520  62.7980350  27.4405390  55.6796950  63.8646910  26.5308360
  64.7313610  68.3687990  26.9014060  64.6621890  67.4277930  26.7403190
  65.4933470  68.4589400  27.4736630  56.9220280  58.9742510  29.2270680
  56.7423120  58.0768260  29.5073440  56.5200360  59.5214380  29.9017630
  65.7618780  61.1758370  27.1282990  66.1383600  60.3030250  27.0156660
  65.6638290  61.5117070  26.2373430  59.8923790  59.5484000  22.5900430
  59.9990540  60.4487730  22.8969190  58.9816150  59.5001970  22.2995080
  69.5442900  58.6708810  24.0611330  70.3652520  58.1805380  24.1036810
  69.5776980  59.2606470  24.8143170  57.5406950  61.4703010  27.8353020
  58.2217060  61.7341380  28.4540420  57.2255000  60.6303880  28.1691030
  61.7331520  62.5170370  26.9225610  62.2409740  63.0151340  27.5630630
  62.2644760  61.7405570  26.7464970  60.0167620  57.1568930  31.1889030
  60.0186060  57.6741320  30.3834930  59.1871930  56.6799110  31.1658960
  66.4038710  67.2688240  22.6878930  65.7855980  67.7337690  22.1241650
  66.9161960  67.9615720  23.1048440  61.2670470  66.7964110  29.3662530
  60.9339850  67.4233030  30.0083600  61.4437150  67.3225990  28.5864200
  69.7804380  60.6109190  26.8338870  69.0759950  60.8994080  27.4141980
  70.1416540  61.4209300  26.4738430  59.6982950  58.8678890  29.1959480
  60.0399760  59.7120940  28.9013350  58.7598760  59.0162630  29.3124820
  60.4789570  68.7644910  31.1811710  61.0963570  69.4395990  30.8996160
  59.6182690  69.1732890  31.0899210  55.7721910  67.9544770  20.0618560
  55.3949890  68.4431870  19.3303460  56.0294980  68.6270050  20.6925090
  63.3810840  56.3561160  25.5204070  63.6885820  55.8008050  24.8039570
  62.4511540  56.4905620  25.3377060  70.2271320  68.7944670  22.9001700
  70.1167650  67.8519000  23.0251120  70.2239570  69.1560310  23.7864460
  68.3311340  66.9758290  29.1394140  68.7480130  66.7618400  28.3047600
  69.0551160  67.2331080  29.7102760  65.7691600  64.4209990  22.2564190
  64.8420880  64.3547370  22.4852660  65.9216420  65.3590120  22.1419430
  65.7560680  60.6926990  19.2531350  64.8164350  60.8540950  19.3383810
  66.0743940  61.4112670  18.7067340  69.7988890  65.9830290  22.7599440
  69.1801310  65.6449840  22.1125740  69.7813340  65.3390050  23.4678630
  69.2415450  62.1614830  30.1765250  68.8286630  62.9868540  30.4305240
  68.5091400  61.5759870  29.9841610  61.3748240  64.9474730  25.0383920
  60.9705240  64.2351980  24.5429820  61.4611360  64.6027970  25.9271960
  61.8429940  68.6342290  27.2023130  61.5458230  68.0287760  26.5230910
  62.7929760  68.6719600  27.0912490  60.0876860  61.7217940  28.8182960
  60.6391450  61.8313280  28.0436210  60.6020370  62.0955540  29.5338190
  60.9348370  68.3723980  33.8530930  60.0376900  68.5963950  34.1004330
  60.9601240  68.4958920  32.9042330  67.9753590  65.2217100  19.7672190
  68.4146870  64.3839530  19.6210010  68.6882010  65.8546500  19.8536330
  59.7619590  65.2437300  32.4288300  59.6227360  66.1160100  32.7975700
  58.8800950  64.9010110  32.2836240  66.0848970  70.1613170  23.7353430
  66.5244880  70.9037500  23.3208820  66.0235860  70.4039740  24.6592390
  58.0752870  63.8419710  22.5390570  57.9550470  64.5681800  21.9271840
  57.7653760  63.0722620  22.0618480  55.7138240  67.0134850  28.3459210
  55.7918660  67.1483620  27.4014930  56.3279920  66.3050740  28.5387330
  56.9585870  68.7135040  24.7565390  56.5513950  68.8549630  23.9018990
  57.8498880  68.4295200  24.5536600  68.4545280  70.6569850  19.6514440
  67.7610440  70.6547140  18.9916720  69.1968140  70.2329170  19.2208610
  55.7697760  68.0549020  30.8853670  55.9328800  67.5854380  30.0673040
  56.2350210  67.5472580  31.5502510  60.5416530  57.1854780  25.9214240
  60.0984680  57.9664320  25.5898760  61.1001520  57.5084670  26.6285180
  64.8286340  60.0523300  31.5249560  64.3665710  60.2606320  32.3369500
  64.4264450  59.2382650  31.2220230  69.8290850  61.2732250  32.6546220
  68.9784440  60.9738000  32.9755290  69.6692640  61.5174260  31.7430040
  66.9240560  62.7734000  34.7545010  67.2493970  61.9397750  34.4147240
  67.7120890  63.2962520  34.9023340  63.6575350  56.8065480  20.8020070
  63.0329530  56.8025350  21.5273380  63.5705470  55.9396440  20.4056040
  62.5792430  57.7302110  27.7803840  62.8764760  58.6364940  27.6995860
  63.1277990  57.2420890  27.1663410  60.3330750  62.3088350  23.6495490
  60.1071670  62.0925520  24.5542110  59.5523280  62.7416810  23.3041460
  67.5628510  62.3151720  22.2486140  66.9637400  63.0387520  22.0649760
  68.1108120  62.2528500  21.4662590  62.7729960  63.2073930  34.3155760
  62.6773560  62.2668660  34.1656160  63.6161940  63.4289000  33.9203830
  66.1693380  60.9515260  24.2789420  66.5622950  61.2687460  23.4658110
  66.5310230  60.0727140  24.3933940  57.9040500  59.6187600  32.4689540
  57.5103890  60.4662810  32.6762320  57.2158900  58.9813970  32.6598180
  64.4785550  59.7022570  35.5386280  63.7883870  59.5094770  36.1732370
  65.2217850  59.9857210  36.0710580  55.2057550  57.5416060  26.5019620
  54.9170600  58.1118920  27.2144600  55.9503310  57.0620510  26.8650850
  55.3927780  61.4836180  17.7122340  55.3102450  62.4266940  17.8537330
  55.0410840  61.3411090  16.8334690  66.7548520  63.5421010  28.3740200
  66.0229640  64.0507820  28.7230300  66.3572860  62.7250990  28.0728980
  63.1925910  60.2175210  26.7792690  63.1961970  59.7765160  25.9297230
  64.0877030  60.5392540  26.8864510  59.0428290  60.1001700  25.7386900
  58.7028340  60.5776930  26.4953950  58.2805610  59.6466820  25.3788000
  63.2546060  61.2187290  19.7699450  63.3758880  61.1773770  20.7185270
  62.8694570  62.0811440  19.6146180  67.2174430  58.9954690  27.7863140
  67.2347170  59.4463340  28.6304990  66.9690010  58.0960330  27.9996580
  62.2667560  63.5288430  19.1682750  61.6984460  63.0806680  18.5418660
  62.9756560  63.8881210  18.6347900  70.6445180  56.4086870  33.6249520
  70.9690950  55.6776530  34.1507500  70.6801690  56.0900510  32.7230510
  57.3436740  67.4300450  33.0449480  56.9591530  66.7894120  33.6432440
  57.6548930  68.1336570  33.6144210  63.4933880  64.2776990  28.5258100
  63.8604010  63.8035560  29.2719440  63.3038940  65.1518560  28.8666440
  56.3574370  59.0220680  24.6551570  56.0721290  58.6576350  25.4930190
  56.2953230  58.2901140  24.0414710  61.2833250  63.3185630  30.8442310
  60.9790320  64.1977610  31.0692670  62.2379710  63.3785420  30.8799750
  59.8115040  67.5246620  21.4409160  59.0377300  66.9844240  21.2807880
  60.5409670  67.0053230  21.1026920  66.0312960  57.9149940  21.3764940
  65.2177570  57.4163110  21.3010250  65.8374910  58.7548190  20.9601290
  65.9521820  66.5921040  33.1204550  65.8859130  65.6716710  32.8662140
  65.3226960  66.6896480  33.8349190  68.7461350  62.2869590  19.6727100
  69.6340970  62.5986820  19.4978440  68.7166440  61.4141840  19.2807680
  59.8552440  67.1927000  25.0787970  60.3731110  66.3895260  25.0244860
  59.4036460  67.1306140  25.9204800  64.7421940  68.4593280  20.3515270
  65.0837640  69.2035510  19.8558590  63.9134650  68.7724400  20.7140100
  57.3396980  64.1588370  31.9913670  56.9811920  64.8242220  32.5787010
  57.0451540  63.3271920  32.3626290  60.5410100  64.6172610  34.8753220
  60.2410240  64.7629790  33.9781040  61.3121340  64.0577900  34.7826610
  65.8838550  69.4141610  32.8708350  65.8983090  68.4822570  32.6527260
  65.1763650  69.5001370  33.5098120  67.6249350  67.7809120  25.7160780
  67.9773170  67.1837250  25.0562150  66.7411680  67.4553350  25.8869030
  63.7112630  68.5406810  23.1231190  64.3983760  69.0876020  23.5038780
  62.9245050  69.0847540  23.1580800  55.8505030  64.1579630  18.6148270
  56.7199880  64.4404430  18.8984190  55.3595350  64.9715500  18.4997080
  63.0139840  65.5452840  22.7356550  63.4702620  66.3558090  22.9616740
  62.6628050  65.2275980  23.5675040  65.3172450  71.0559180  29.9648850
  65.9614670  71.2618560  30.6422270  65.6801890  70.2947580  29.5119700
  58.9151620  55.8890490  23.2079070  58.7866250  55.8808390  24.1563990
  58.0913640  56.2273580  22.8570080  66.5904530  69.0591530  28.6826300
  67.2326760  68.3584690  28.7958470  67.1153880  69.8389970  28.5023190
  70.4360250  69.3440150  18.4065440  70.2097830  68.6270590  18.9990080
  70.0456450  69.0952590  17.5687190  68.3642150  69.8586430  31.8862360
  68.6998390  70.4453120  32.5640280  67.4442490  69.7279140  32.1160150
  55.9145550  57.6481610  32.6685770  55.2004070  57.8478530  33.2738380
  56.3340590  56.8721180  33.0400570  70.0176500  67.2612090  20.0679600
  69.7298200  67.7224780  20.8557480  70.8128670  66.8009860  20.3363820
  64.1930730  69.9077760  35.0550420  63.8727600  69.1887000  35.5996110
  63.5189090  70.5832830  35.1286480  62.2344900  70.7538210  19.9983570
  62.2255000  71.4867900  19.3828080  61.3143260  70.5069790  20.0910530
  57.8351540  65.9753100  20.7430330  57.2279490  66.7152000  20.7525630
  58.3100890  66.0652460  19.9168530  67.4084330  60.1403920  30.4187220
  67.7765150  59.3199130  30.7466790  66.5482530  60.2005810  30.8342870
  70.7746360  59.0960860  21.2274780  70.1459520  59.2006530  20.5133010
  70.2798280  59.3157640  22.0168660  65.2204500  70.8166450  18.6608760
  65.3216480  70.6130440  17.7310740  64.3206240  70.5624730  18.8656540
  62.7430390  61.3746810  22.6432660  62.0346540  61.8433150  23.0846270
  63.0274870  60.7168820  23.2777850  64.3686320  62.7943510  30.6425190
  64.8671570  63.2689330  31.3077040  64.5109270  61.8707030  30.8495220
  66.7745820  58.0997470  24.0828450  66.6513600  58.1183600  23.1337960
  67.7230380  58.1476410  24.2026850  60.9465410  59.6831890  20.0183370
  61.7955940  60.1202040  19.9523560  60.5796680  59.9952150  20.8455430
  69.8675190  64.2544650  24.9314940  68.9265330  64.2694880  25.1062630
  70.1819260  63.4680610  25.3775240  59.8456830  65.9364250  18.4918900
  60.6120100  65.8245610  19.0544330  59.9231520  65.2402220  17.8395670
  58.5403590  63.3689320  19.1751790  58.6207180  62.4216830  19.2869190
  59.4323340  63.6996200  19.2812450  56.2263780  69.5858280  22.1527840
  55.3003560  69.8279420  22.1433250  56.6920210  70.4132540  22.0312590
  67.1841210  68.8110650  35.4147320  66.5779370  68.8342250  34.6743070
  66.8795320  68.0793690  35.9514570  56.0674390  65.1904240  34.4107960
  56.5713410  64.6111520  34.9824190  55.3281810  65.4744470  34.9484330
  62.9698010  67.9118430  17.9654250  62.8648650  67.2970780  18.6915630
  62.8022230  67.3884320  17.1817260  63.1212330  66.5975230  33.9443480
  62.3558000  67.1660230  33.8598150  63.3028290  66.3051440  33.0511710
  66.2100740  66.9738460  18.5696240  65.6610840  67.4207760  19.2138980
  66.8320000  66.4687710  19.0933910  70.2635680  68.3280560  34.5018500
  71.0045150  68.6656320  33.9985960  69.5008360  68.4972620  33.9488270
  58.0997470  63.3333830  35.3058030  58.1402810  63.0347700  36.2143260
  58.9542970  63.7341440  35.1465550  61.8775860  65.9329380  20.4661540
  62.2992280  65.7669250  21.3092930  62.0026700  65.1229610  19.9716680
  60.0403280  61.9125930  33.2732520  59.5099740  61.4216880  32.6455860
  60.7091350  62.3410130  32.7390450  64.3903500  64.9566990  17.7138640
  64.9109160  64.2416010  17.3479790  65.0371900  65.5952860  18.0139150
  68.9381340  66.3795390  33.0373710  69.3522360  66.5340470  33.8864130
  68.0032340  66.5050610  33.1999490  69.4103510  63.7191550  35.0412860
  69.9924280  62.9643870  34.9533340  69.5865280  64.2498990  34.2644340
  60.5275580  58.8788300  33.3529810  60.4332450  58.2609050  32.6280680
  59.9472970  59.6054590  33.1259720  63.2937020  57.4361540  30.3857200
  62.8454320  57.4585800  29.5402750  62.6602220  57.0380560  30.9827500
  63.6996570  66.3315870  31.0069640  64.1184680  67.1748600  30.8345880
  62.7805200  66.4687910  30.7776420  66.0360470  64.0632050  32.3907480
  66.1556680  63.4673190  33.1302320  66.8954470  64.1001740  31.9708780
  68.3748370  64.6169240  30.9669990  67.8483590  65.1411860  30.3635130
  68.7179710  65.2496630  31.5979720  60.7734760  62.0062610  17.4119700
  60.5723820  61.1429970  17.7733040  60.6026810  61.9195970  16.4741300
  62.8029240  60.6053400  33.6483300  63.3928930  60.2969250  34.3361120
  61.9849480  60.1333150  33.8043200  67.6222670  60.2219210  33.8816320
  66.9338190  59.5600750  33.8166310  68.3428690  59.7757480  34.3264780
  68.2523070  56.8170840  19.9406580  68.5325360  55.9738740  20.2966000
  67.4788800  57.0493950  20.4545330  59.5717560  59.1063230  17.3997580
  59.8743460  59.1130660  16.4916730  60.3112150  58.7561090  17.8965240
  62.7902490  58.0497850  18.3853780  62.4424490  57.3721840  17.8056230
  62.9915260  57.5887360  19.1997170  58.5947690  68.4105650  18.2327380
  59.0322560  68.9535320  18.8884960  59.0795420  67.5852600  18.2423720
  55.8093490  71.1994680  25.6847640  56.1396500  70.3315740  25.4526280
  56.2384490  71.4053200  26.5152600  60.4055410  69.5303690  23.3449610
  60.1050950  69.4068660  24.2453520  60.2992900  68.6712280  22.9365340
  56.1308130  64.5785500  24.7818150  55.4756970  64.3097140  24.1377850
  56.9686080  64.4689980  24.3320130  69.0798570  59.3726790  19.0036640
  69.4983450  59.1857770  18.1633300  68.7734630  58.5205840  19.3139570
  57.1684060  64.9638070  29.3221490  57.5357100  64.8765470  30.2017510
  56.5994880  64.2004620  29.2228350  56.7200060  61.8747160  33.2279910
  55.8256110  61.8413920  33.5673620  57.2597610  62.0733950  33.9931160
  55.3446210  61.7884430  20.7243480  54.4410290  62.0514630  20.5495140
  55.8286830  62.0595600  19.9443440  57.8873420  60.8449970  18.6337860
  58.5965120  60.4233190  18.1485140  57.1713360  60.9125200  18.0021210
  57.5347580  56.8989300  17.6740510  58.2575710  57.4398240  17.9921730
  57.8072100  56.6252720  16.7982050  57.2239770  56.1495490  27.5763130
  57.8715960  55.5992870  27.1358290  57.6441610  56.4038640  28.3978940
  56.9771770  56.3051160  30.3188450  56.6286590  56.7614980  31.0846630
  56.6459470  55.4108290  30.4010880  58.5836140  69.4770760  34.4841640
  58.5405770  69.1063670  35.3656100  58.7147150  70.4148330  34.6243460
  62.2842170  71.0330350  30.0851360  62.0433530  71.3004910  29.1981880
  63.2244810  71.2036080  30.1402220  64.4896590  57.4963040  33.8407870
  64.4285480  58.0884870  34.5903280  65.4296970  57.3889000  33.6958130
  67.1271150  57.1533100  33.4800160  67.7411560  57.4712390  32.8181240
  67.6720710  56.6681690  34.0996020  57.6492410  55.8327360  33.5939220
  58.1975400  55.6515410  32.8305330  57.7147720  55.0421470  34.1295530
  67.8679190  55.7165240  29.8069450  66.9939030  56.0500350  29.6042380
  67.7589940  55.2438420  30.6321320  68.7751170  57.9236110  31.1911170
  68.4464530  57.1087870  30.8112900  69.7233470  57.8805920  31.0676860
  58.0536400  69.7891390  30.5547460  57.3270460  69.1696680  30.4873410
  58.1145550  70.1832000  29.6845540  65.6154010  56.6335080  28.7462360
  64.8325800  57.1080580  29.0259120  65.3216940  55.7289910  28.6375540
  70.1675080  57.3358180  26.7911450  70.6083170  57.2803280  25.9433050
  69.8982670  58.2516190  26.8621630  56.9594420  56.9382560  21.2676080
  57.7173780  57.0511440  20.6940110  56.4971590  57.7751760  21.2219510
  63.5008230  59.0521830  24.2578390  62.6882740  58.6778720  23.9174270
  64.0049870  58.2966910  24.5599580  68.0033210  55.7164280  25.4961460
  68.6062580  56.2884490  25.9709980  67.2626200  56.2803720  25.2735360
  59.3319570  57.4646610  19.8078050  59.8612330  56.6776410  19.6786000
  59.9647890  58.1437800  20.0413580  61.5257410  57.2021750  22.8623440
  60.8960150  56.5009060  23.0293570  60.9862550  57.9625880  22.6456600
  61.6512970  56.4805730  35.2975930  61.3697240  56.9839330  34.5336750
  62.0332670  55.6827480  34.9318060  59.7036860  69.8646120  20.0889940
  59.0745740  70.3331220  20.6375770  59.8184690  69.0195340  20.5236130
  68.2528430  55.8959310  35.8756400  68.1393880  56.2153920  36.7707920
  69.0698170  56.2971820  35.5793680  67.1586580  63.9151780   6.2391140
  67.0780630  63.0006390   5.9682850  66.7451000  64.4118850   5.5330850
  65.2904620  65.6930800   8.1200410  64.5146720  65.2131240   8.4098980
  65.9417550  65.0136450   7.9456570  59.3070450  66.0050610   8.9976170
  58.4755330  65.7499320   9.3972680  59.9151430  66.0761380   9.7334090
  69.3112050  70.0990990   6.8999540  68.8493580  69.3278230   7.2286710
  70.1237600  70.1257060   7.4051990  59.2871710  70.0390700   9.1934190
  59.5899750  69.1488440   9.0144410  60.0315300  70.5960920   8.9656440
  57.7162400  60.9652500   2.7818560  56.8279100  61.3068470   2.6798440
  58.0003590  60.7652820   1.8899390  55.6795410  63.5658150   8.6658260
  56.2511520  62.7980350   8.6661900  55.6796950  63.8646910   7.7564870
  64.7313610  68.3687990   8.1270570  64.6621890  67.4277930   7.9659700
  65.4933470  68.4589400   8.6993140  56.9220280  58.9742510  10.4527190
  56.7423120  58.0768260  10.7329950  56.5200360  59.5214380  11.1274140
  65.7618780  61.1758370   8.3539500  66.1383600  60.3030250   8.2413170
  65.6638290  61.5117070   7.4629940  59.8923790  59.5484000   3.8156940
  59.9990540  60.4487730   4.1225700  58.9816150  59.5001970   3.5251590
  69.5442900  58.6708810   5.2867840  70.3652520  58.1805380   5.3293320
  69.5776980  59.2606470   6.0399680  57.5406950  61.4703010   9.0609530
  58.2217060  61.7341380   9.6796930  57.2255000  60.6303880   9.3947540
  61.7331520  62.5170370   8.1482120  62.2409740  63.0151340   8.7887140
  62.2644760  61.7405570   7.9721480  60.0167620  57.1568930  12.4145540
  60.0186060  57.6741320  11.6091440  59.1871930  56.6799110  12.3915470
  66.4038710  67.2688240   3.9135440  65.7855980  67.7337690   3.3498160
  66.9161960  67.9615720   4.3304950  61.2670470  66.7964110  10.5919040
  60.9339850  67.4233030  11.2340110  61.4437150  67.3225990   9.8120710
  69.7804380  60.6109190   8.0595380  69.0759950  60.8994080   8.6398490
  70.1416540  61.4209300   7.6994940  59.6982950  58.8678890  10.4215990
  60.0399760  59.7120940  10.1269860  58.7598760  59.0162630  10.5381330
  60.4789570  68.7644910  12.4068220  61.0963570  69.4395990  12.1252670
  59.6182690  69.1732890  12.3155720  63.3810840  56.3561160   6.7460580
  63.6885820  55.8008050   6.0296080  62.4511540  56.4905620   6.5633570
  70.2271320  68.7944670   4.1258210  70.1167650  67.8519000   4.2507630
  70.2239570  69.1560310   5.0120970  68.3311340  66.9758290  10.3650650
  68.7480130  66.7618400   9.5304110  69.0551160  67.2331080  10.9359270
  65.7691600  64.4209990   3.4820700  64.8420880  64.3547370   3.7109170
  65.9216420  65.3590120   3.3675940  69.7988890  65.9830290   3.9855950
  69.1801310  65.6449840   3.3382250  69.7813340  65.3390050   4.6935140
  69.2415450  62.1614830  11.4021760  68.8286630  62.9868540  11.6561750
  68.5091400  61.5759870  11.2098120  61.3748240  64.9474730   6.2640430
  60.9705240  64.2351980   5.7686330  61.4611360  64.6027970   7.1528470
  61.8429940  68.6342290   8.4279640  61.5458230  68.0287760   7.7487420
  62.7929760  68.6719600   8.3169000  60.0876860  61.7217940  10.0439470
  60.6391450  61.8313280   9.2692720  60.6020370  62.0955540  10.7594700
  60.9348370  68.3723980  15.0787440  60.0376900  68.5963950  15.3260840
  60.9601240  68.4958920  14.1298840  59.7619590  65.2437300  13.6544810
  59.6227360  66.1160100  14.0232210  58.8800950  64.9010110  13.5092750
  66.0848970  70.1613170   4.9609940  66.5244880  70.9037500   4.5465330
  66.0235860  70.4039740   5.8848900  58.0752870  63.8419710   3.7647080
  57.9550470  64.5681800   3.1528350  57.7653760  63.0722620   3.2874990
  55.7138240  67.0134850   9.5715720  55.7918660  67.1483620   8.6271440
  56.3279920  66.3050740   9.7643840  56.9585870  68.7135040   5.9821900
  56.5513950  68.8549630   5.1275500  57.8498880  68.4295200   5.7793110
  55.7697760  68.0549020  12.1110180  55.9328800  67.5854380  11.2929550
  56.2350210  67.5472580  12.7759020  60.5416530  57.1854780   7.1470750
  60.0984680  57.9664320   6.8155270  61.1001520  57.5084670   7.8541690
  64.8286340  60.0523300  12.7506070  64.3665710  60.2606320  13.5626010
  64.4264450  59.2382650  12.4476740  69.8290850  61.2732250  13.8802730
  68.9784440  60.9738000  14.2011800  69.6692640  61.5174260  12.9686550
  66.9240560  62.7734000  15.9801520  67.2493970  61.9397750  15.6403750
  67.7120890  63.2962520  16.1279850  62.5792430  57.7302110   9.0060350
  62.8764760  58.6364940   8.9252370  63.1277990  57.2420890   8.3919920
  60.3330750  62.3088350   4.8752000  60.1071670  62.0925520   5.7798620
  59.5523280  62.7416810   4.5297970  67.5628510  62.3151720   3.4742650
  66.9637400  63.0387520   3.2906270  68.1108120  62.2528500   2.6919100
  62.7729960  63.2073930  15.5412270  62.6773560  62.2668660  15.3912670
  63.6161940  63.4289000  15.1460340  66.1693380  60.9515260   5.5045930
  66.5622950  61.2687460   4.6914620  66.5310230  60.0727140   5.6190450
  57.9040500  59.6187600  13.6946050  57.5103890  60.4662810  13.9018830
  57.2158900  58.9813970  13.8854690  64.4785550  59.7022570  16.7642790
  63.7883870  59.5094770  17.3988880  65.2217850  59.9857210  17.2967090
  55.2057550  57.5416060   7.7276130  54.9170600  58.1118920   8.4401110
  55.9503310  57.0620510   8.0907360  66.7548520  63.5421010   9.5996710
  66.0229640  64.0507820   9.9486810  66.3572860  62.7250990   9.2985490
  63.1925910  60.2175210   8.0049200  63.1961970  59.7765160   7.1553740
  64.0877030  60.5392540   8.1121020  59.0428290  60.1001700   6.9643410
  58.7028340  60.5776930   7.7210460  58.2805610  59.6466820   6.6044510
  67.2174430  58.9954690   9.0119650  67.2347170  59.4463340   9.8561500
  66.9690010  58.0960330   9.2253090  70.6445180  56.4086870  14.8506030
  70.9690950  55.6776530  15.3764010  70.6801690  56.0900510  13.9487020
  57.3436740  67.4300450  14.2705990  56.9591530  66.7894120  14.8688950
  57.6548930  68.1336570  14.8400720  63.4933880  64.2776990   9.7514610
  63.8604010  63.8035560  10.4975950  63.3038940  65.1518560  10.0922950
  56.3574370  59.0220680   5.8808080  56.0721290  58.6576350   6.7186700
  56.2953230  58.2901140   5.2671220  61.2833250  63.3185630  12.0698820
  60.9790320  64.1977610  12.2949180  62.2379710  63.3785420  12.1056260
  59.8115040  67.5246620   2.6665670  59.0377300  66.9844240   2.5064390
  60.5409670  67.0053230   2.3283430  66.0312960  57.9149940   2.6021450
  65.2177570  57.4163110   2.5266760  65.8374910  58.7548190   2.1857800
  65.9521820  66.5921040  14.3461060  65.8859130  65.6716710  14.0918650
  65.3226960  66.6896480  15.0605700  59.8552440  67.1927000   6.3044480
  60.3731110  66.3895260   6.2501370  59.4036460  67.1306140   7.1461310
  57.3396980  64.1588370  13.2170180  56.9811920  64.8242220  13.8043520
  57.0451540  63.3271920  13.5882800  60.5410100  64.6172610  16.1009730
  60.2410240  64.7629790  15.2037550  61.3121340  64.0577900  16.0083120
  65.8838550  69.4141610  14.0964860  65.8983090  68.4822570  13.8783770
  65.1763650  69.5001370  14.7354630  67.6249350  67.7809120   6.9417290
  67.9773170  67.1837250   6.2818660  66.7411680  67.4553350   7.1125540
  63.7112630  68.5406810   4.3487700  64.3983760  69.0876020   4.7295290
  62.9245050  69.0847540   4.3837310  63.0139840  65.5452840   3.9613060
  63.4702620  66.3558090   4.1873250  62.6628050  65.2275980   4.7931550
  65.3172450  71.0559180  11.1905360  65.9614670  71.2618560  11.8678780
  65.6801890  70.2947580  10.7376210  58.9151620  55.8890490   4.4335580
  58.7866250  55.8808390   5.3820500  58.0913640  56.2273580   4.0826590
  66.5904530  69.0591530   9.9082810  67.2326760  68.3584690  10.0214980
  67.1153880  69.8389970   9.7279700  68.3642150  69.8586430  13.1118870
  68.6998390  70.4453120  13.7896790  67.4442490  69.7279140  13.3416660
  55.9145550  57.6481610  13.8942280  55.2004070  57.8478530  14.4994890
  56.3340590  56.8721180  14.2657080  64.1930730  69.9077760  16.2806930
  63.8727600  69.1887000  16.8252620  63.5189090  70.5832830  16.3542990
  67.4084330  60.1403920  11.6443730  67.7765150  59.3199130  11.9723300
  66.5482530  60.2005810  12.0599380  70.7746360  59.0960860   2.4531290
  70.1459520  59.2006530   1.7389520  70.2798280  59.3157640   3.2425170
  62.7430390  61.3746810   3.8689170  62.0346540  61.8433150   4.3102780
  63.0274870  60.7168820   4.5034360  64.3686320  62.7943510  11.8681700
  64.8671570  63.2689330  12.5333550  64.5109270  61.8707030  12.0751730
  66.7745820  58.0997470   5.3084960  66.6513600  58.1183600   4.3594470
  67.7230380  58.1476410   5.4283360  69.8675190  64.2544650   6.1571450
  68.9265330  64.2694880   6.3319140  70.1819260  63.4680610   6.6031750
  56.2263780  69.5858280   3.3784350  55.3003560  69.8279420   3.3689760
  56.6920210  70.4132540   3.2569100  67.1841210  68.8110650  16.6403830
  66.5779370  68.8342250  15.8999580  66.8795320  68.0793690  17.1771080
  56.0674390  65.1904240  15.6364470  56.5713410  64.6111520  16.2080700
  55.3281810  65.4744470  16.1740840  63.1212330  66.5975230  15.1699990
  62.3558000  67.1660230  15.0854660  63.3028290  66.3051440  14.2768220
  70.2635680  68.3280560  15.7275010  71.0045150  68.6656320  15.2242470
  69.5008360  68.4972620  15.1744780  58.0997470  63.3333830  16.5314540
  58.1402810  63.0347700  17.4399770  58.9542970  63.7341440  16.3722060
  60.0403280  61.9125930  14.4989030  59.5099740  61.4216880  13.8712370
  60.7091350  62.3410130  13.9646960  68.9381340  66.3795390  14.2630220
  69.3522360  66.5340470  15.1120640  68.0032340  66.5050610  14.4256000
  69.4103510  63.7191550  16.2669370  69.9924280  62.9643870  16.1789850
  69.5865280  64.2498990  15.4900850  60.5275580  58.8788300  14.5786320
  60.4332450  58.2609050  13.8537190  59.9472970  59.6054590  14.3516230
  63.2937020  57.4361540  11.6113710  62.8454320  57.4585800  10.7659260
  62.6602220  57.0380560  12.2084010  63.6996570  66.3315870  12.2326150
  64.1184680  67.1748600  12.0602390  62.7805200  66.4687910  12.0032930
  66.0360470  64.0632050  13.6163990  66.1556680  63.4673190  14.3558830
  66.8954470  64.1001740  13.1965290  68.3748370  64.6169240  12.1926500
  67.8483590  65.1411860  11.5891640  68.7179710  65.2496630  12.8236230
  62.8029240  60.6053400  14.8739810  63.3928930  60.2969250  15.5617630
  61.9849480  60.1333150  15.0299710  67.6222670  60.2219210  15.1072830
  66.9338190  59.5600750  15.0422820  68.3428690  59.7757480  15.5521290
  55.8093490  71.1994680   6.9104150  56.1396500  70.3315740   6.6782790
  56.2384490  71.4053200   7.7409110  60.4055410  69.5303690   4.5706120
  60.1050950  69.4068660   5.4710030  60.2992900  68.6712280   4.1621850
  56.1308130  64.5785500   6.0074660  55.4756970  64.3097140   5.3634360
  56.9686080  64.4689980   5.5576640  57.1684060  64.9638070  10.5478000
  57.5357100  64.8765470  11.4274020  56.5994880  64.2004620  10.4484860
  56.7200060  61.8747160  14.4536420  55.8256110  61.8413920  14.7930130
  57.2597610  62.0733950  15.2187670  57.2239770  56.1495490   8.8019640
  57.8715960  55.5992870   8.3614800  57.6441610  56.4038640   9.6235450
  56.9771770  56.3051160  11.5444960  56.6286590  56.7614980  12.3103140
  56.6459470  55.4108290  11.6267390  58.5836140  69.4770760  15.7098150
  58.5405770  69.1063670  16.5912610  58.7147150  70.4148330  15.8499970
  62.2842170  71.0330350  11.3107870  62.0433530  71.3004910  10.4238390
  63.2244810  71.2036080  11.3658730  64.4896590  57.4963040  15.0664380
  64.4285480  58.0884870  15.8159790  65.4296970  57.3889000  14.9214640
  67.1271150  57.1533100  14.7056670  67.7411560  57.4712390  14.0437750
  67.6720710  56.6681690  15.3252530  57.6492410  55.8327360  14.8195730
  58.1975400  55.6515410  14.0561840  57.7147720  55.0421470  15.3552040
  67.8679190  55.7165240  11.0325960  66.9939030  56.0500350  10.8298890
  67.7589940  55.2438420  11.8577830  68.7751170  57.9236110  12.4167680
  68.4464530  57.1087870  12.0369410  69.7233470  57.8805920  12.2933370
  58.0536400  69.7891390  11.7803970  57.3270460  69.1696680  11.7129920
  58.1145550  70.1832000  10.9102050  65.6154010  56.6335080   9.9718870
  64.8325800  57.1080580  10.2515630  65.3216940  55.7289910   9.8632050
  70.1675080  57.3358180   8.0167960  70.6083170  57.2803280   7.1689560
  69.8982670  58.2516190   8.0878140  56.9594420  56.9382560   2.4932590
  57.7173780  57.0511440   1.9196620  56.4971590  57.7751760   2.4476020
  63.5008230  59.0521830   5.4834900  62.6882740  58.6778720   5.1430780
  64.0049870  58.2966910   5.7856090  68.0033210  55.7164280   6.7217970
  68.6062580  56.2884490   7.1966490  67.2626200  56.2803720   6.4991870
  61.5257410  57.2021750   4.0879950  60.8960150  56.5009060   4.2550080
  60.9862550  57.9625880   3.8713110  61.6512970  56.4805730  16.5232440
  61.3697240  56.9839330  15.7593260  62.0332670  55.6827480  16.1574570
  68.2528430  55.8959310  17.1012910  68.1393880  56.2153920  17.9964430
  69.0698170  56.2971820  16.8050190  67.1586580  45.1408290  62.5621610
  67.0780630  44.2262900  62.2913320  66.7451000  45.6375360  61.8561320
  65.2904620  46.9187310  64.4430880  64.5146720  46.4387750  64.7329450
  65.9417550  46.2392960  64.2687040  59.3070450  47.2307120  65.3206640
  58.4755330  46.9755830  65.7203150  59.9151430  47.3017890  66.0564560
  69.3112050  51.3247500  63.2230010  68.8493580  50.5534740  63.5517180
  70.1237600  51.3513570  63.7282460  59.2871710  51.2647210  65.5164660
  59.5899750  50.3744950  65.3374880  60.0315300  51.8217430  65.2886910
  57.7162400  42.1909010  59.1049030  56.8279100  42.5324980  59.0028910
  58.0003590  41.9909330  58.2129860  55.6795410  44.7914660  64.9888730
  56.2511520  44.0236860  64.9892370  55.6796950  45.0903420  64.0795340
  65.5375360  53.6105510  62.8434000  64.9186800  54.0663010  62.2728440
  66.3927140  53.7656970  62.4423700  64.7313610  49.5944500  64.4501040
  64.6621890  48.6534440  64.2890170  65.4933470  49.6845910  65.0223610
  56.9220280  40.1999020  66.7757660  56.7423120  39.3024770  67.0560420
  56.5200360  40.7470890  67.4504610  65.7618780  42.4014880  64.6769970
  66.1383600  41.5286760  64.5643640  65.6638290  42.7373580  63.7860410
  59.8923790  40.7740510  60.1387410  59.9990540  41.6744240  60.4456170
  58.9816150  40.7258480  59.8482060  69.5442900  39.8965320  61.6098310
  70.3652520  39.4061890  61.6523790  69.5776980  40.4862980  62.3630150
  57.5406950  42.6959520  65.3840000  58.2217060  42.9597890  66.0027400
  57.2255000  41.8560390  65.7178010  61.7331520  43.7426880  64.4712590
  62.2409740  44.2407850  65.1117610  62.2644760  42.9662080  64.2951950
  60.0167620  38.3825440  68.7376010  60.0186060  38.8997830  67.9321910
  59.1871930  37.9055620  68.7145940  66.4038710  48.4944750  60.2365910
  65.7855980  48.9594200  59.6728630  66.9161960  49.1872230  60.6535420
  61.2670470  48.0220620  66.9149510  60.9339850  48.6489540  67.5570580
  61.4437150  48.5482500  66.1351180  69.7804380  41.8365700  64.3825850
  69.0759950  42.1250590  64.9628960  70.1416540  42.6465810  64.0225410
  59.6982950  40.0935400  66.7446460  60.0399760  40.9377450  66.4500330
  58.7598760  40.2419140  66.8611800  60.4789570  49.9901420  68.7298690
  61.0963570  50.6652500  68.4483140  59.6182690  50.3989400  68.6386190
  55.7721910  49.1801280  57.6105540  55.3949890  49.6688380  56.8790440
  56.0294980  49.8526560  58.2412070  63.3810840  37.5817670  63.0691050
  63.6885820  37.0264560  62.3526550  62.4511540  37.7162130  62.8864040
  68.9325900  53.2984960  65.3598510  68.9453060  52.8947250  64.4920770
  68.3801120  54.0732250  65.2559940  70.2271320  50.0201180  60.4488680
  70.1167650  49.0775510  60.5738100  70.2239570  50.3816820  61.3351440
  68.3311340  48.2014800  66.6881120  68.7480130  47.9874910  65.8534580
  69.0551160  48.4587590  67.2589740  65.7691600  45.6466500  59.8051170
  64.8420880  45.5803880  60.0339640  65.9216420  46.5846630  59.6906410
  65.7560680  41.9183500  56.8018330  64.8164350  42.0797460  56.8870790
  66.0743940  42.6369180  56.2554320  69.7988890  47.2086800  60.3086420
  69.1801310  46.8706350  59.6612720  69.7813340  46.5646560  61.0165610
  69.2415450  43.3871340  67.7252230  68.8286630  44.2125050  67.9792220
  68.5091400  42.8016380  67.5328590  61.3748240  46.1731240  62.5870900
  60.9705240  45.4608490  62.0916800  61.4611360  45.8284480  63.4758940
  61.8429940  49.8598800  64.7510110  61.5458230  49.2544270  64.0717890
  62.7929760  49.8976110  64.6399470  60.0876860  42.9474450  66.3669940
  60.6391450  43.0569790  65.5923190  60.6020370  43.3212050  67.0825170
  69.9315550  53.4330670  68.4133210  69.4546110  54.2402860  68.2205820
  69.2477340  52.7809000  68.5659420  67.9753590  46.4473610  57.3159170
  68.4146870  45.6096040  57.1696990  68.6882010  47.0803010  57.4023310
  66.0848970  51.3869680  61.2840410  66.5244880  52.1294010  60.8695800
  66.0235860  51.6296250  62.2079370  58.0752870  45.0676220  60.0877550
  57.9550470  45.7938310  59.4758820  57.7653760  44.2979130  59.6105460
  55.7138240  48.2391360  65.8946190  55.7918660  48.3740130  64.9501910
  56.3279920  47.5307250  66.0874310  56.9585870  49.9391550  62.3052370
  56.5513950  50.0806140  61.4505970  57.8498880  49.6551710  62.1023580
  66.7764750  54.0883460  69.2119420  67.2909420  53.9991470  70.0141850
  65.9333830  54.4343160  69.5047330  68.7519150  54.3738800  58.6403420
  68.5920290  54.0841740  59.5385250  68.5865860  53.5978930  58.1048650
  61.2307530  54.1537330  60.4175040  61.0550010  53.2372870  60.2042840
  60.3763270  54.5124620  60.6572840  68.4545280  51.8826360  57.2001420
  67.7610440  51.8803650  56.5403700  69.1968140  51.4585680  56.7695590
  68.0195210  53.5089070  61.2749910  68.4752160  52.7278450  61.5888530
  68.3587730  54.2195890  61.8191090  55.7697760  49.2805530  68.4340650
  55.9328800  48.8110890  67.6160020  56.2350210  48.7729090  69.0989490
  60.5416530  38.4111290  63.4701220  60.0984680  39.1920830  63.1385740
  61.1001520  38.7341180  64.1772160  64.8286340  41.2779810  69.0736540
  64.3665710  41.4862830  69.8856480  64.4264450  40.4639160  68.7707210
  63.6575350  38.0321990  58.3507050  63.0329530  38.0281860  59.0760360
  63.5705470  37.1652950  57.9543020  62.5792430  38.9558620  65.3290820
  62.8764760  39.8621450  65.2482840  63.1277990  38.4677400  64.7150390
  60.3330750  43.5344860  61.1982470  60.1071670  43.3182030  62.1029090
  59.5523280  43.9673320  60.8528440  67.5628510  43.5408230  59.7973120
  66.9637400  44.2644030  59.6136740  68.1108120  43.4785010  59.0149570
  66.1693380  42.1771770  61.8276400  66.5622950  42.4943970  61.0145090
  66.5310230  41.2983650  61.9420920  57.9040500  40.8444110  70.0176520
  57.5103890  41.6919320  70.2249300  57.2158900  40.2070480  70.2085160
  55.2057550  38.7672570  64.0506600  54.9170600  39.3375430  64.7631580
  55.9503310  38.2877020  64.4137830  55.3927780  42.7092690  55.2609320
  55.3102450  43.6523450  55.4024310  55.0410840  42.5667600  54.3821670
  66.7548520  44.7677520  65.9227180  66.0229640  45.2764330  66.2717280
  66.3572860  43.9507500  65.6215960  63.1925910  41.4431720  64.3279670
  63.1961970  41.0021670  63.4784210  64.0877030  41.7649050  64.4351490
  59.0428290  41.3258210  63.2873880  58.7028340  41.8033440  64.0440930
  58.2805610  40.8723330  62.9274980  63.2546060  42.4443800  57.3186430
  63.3758880  42.4030280  58.2672250  62.8694570  43.3067950  57.1633160
  67.2174430  40.2211200  65.3350120  67.2347170  40.6719850  66.1791970
  66.9690010  39.3216840  65.5483560  62.2667560  44.7544940  56.7169730
  61.6984460  44.3063190  56.0905640  62.9756560  45.1137720  56.1834880
  63.4933880  45.5033500  66.0745080  63.8604010  45.0292070  66.8206420
  63.3038940  46.3775070  66.4153420  56.3574370  40.2477190  62.2038550
  56.0721290  39.8832860  63.0417170  56.2953230  39.5157650  61.5901690
  61.2833250  44.5442140  68.3929290  60.9790320  45.4234120  68.6179650
  62.2379710  44.6041930  68.4286730  59.8115040  48.7503130  58.9896140
  59.0377300  48.2100750  58.8294860  60.5409670  48.2309740  58.6513900
  66.0312960  39.1406450  58.9251920  65.2177570  38.6419620  58.8497230
  65.8374910  39.9804700  58.5088270  68.7461350  43.5126100  57.2214080
  69.6340970  43.8243330  57.0465420  68.7166440  42.6398350  56.8294660
  59.8552440  48.4183510  62.6274950  60.3731110  47.6151770  62.5731840
  59.4036460  48.3562650  63.4691780  64.7421940  49.6849790  57.9002250
  65.0837640  50.4292020  57.4045570  63.9134650  49.9980910  58.2627080
  57.3396980  45.3844880  69.5400650  56.9811920  46.0498730  70.1273990
  57.0451540  44.5528430  69.9113270  67.6249350  49.0065630  63.2647760
  67.9773170  48.4093760  62.6049130  66.7411680  48.6809860  63.4356010
  63.7112630  49.7663320  60.6718170  64.3983760  50.3132530  61.0525760
  62.9245050  50.3104050  60.7067780  55.8505030  45.3836140  56.1635250
  56.7199880  45.6660940  56.4471170  55.3595350  46.1972010  56.0484060
  63.0139840  46.7709350  60.2843530  63.4702620  47.5814600  60.5103720
  62.6628050  46.4532490  61.1162020  65.3172450  52.2815690  67.5135830
  65.9614670  52.4875070  68.1909250  65.6801890  51.5204090  67.0606680
  58.9151620  37.1147000  60.7566050  58.7866250  37.1064900  61.7050970
  58.0913640  37.4530090  60.4057060  66.5904530  50.2848040  66.2313280
  67.2326760  49.5841200  66.3445450  67.1153880  51.0646480  66.0510170
  70.4360250  50.5696660  55.9552420  70.2097830  49.8527100  56.5477060
  70.0456450  50.3209100  55.1174170  68.3642150  51.0842940  69.4349340
  68.6998390  51.6709630  70.1127260  67.4442490  50.9535650  69.6647130
  56.2176280  54.5963520  56.7296880  56.5773920  55.1952860  56.0754150
  56.0768620  55.1423410  57.5031910  70.0176500  48.4868600  57.6166580
  69.7298200  48.9481290  58.4044460  70.8128670  48.0266370  57.8850800
  62.2344900  51.9794720  57.5470550  62.2255000  52.7124410  56.9315060
  61.3143260  51.7326300  57.6397510  57.8351540  47.2009610  58.2917310
  57.2279490  47.9408510  58.3012610  58.3100890  47.2908970  57.4655510
  67.4084330  41.3660430  67.9674200  67.7765150  40.5455640  68.2953770
  66.5482530  41.4262320  68.3829850  70.7746360  40.3217370  58.7761760
  70.1459520  40.4263040  58.0619990  70.2798280  40.5414150  59.5655640
  65.2204500  52.0422960  56.2095740  65.3216480  51.8386950  55.2797720
  64.3206240  51.7881240  56.4143520  62.7430390  42.6003320  60.1919640
  62.0346540  43.0689660  60.6333250  63.0274870  41.9425330  60.8264830
  64.3686320  44.0200020  68.1912170  64.8671570  44.4945840  68.8564020
  64.5109270  43.0963540  68.3982200  66.7745820  39.3253980  61.6315430
  66.6513600  39.3440110  60.6824940  67.7230380  39.3732920  61.7513830
  63.8622610  54.5609280  60.9043410  64.1164110  54.5230670  59.9822780
  62.9135090  54.4342610  60.8971660  60.9465410  40.9088400  57.5670350
  61.7955940  41.3458550  57.5010540  60.5796680  41.2208660  58.3942410
  69.8675190  45.4801160  62.4801920  68.9265330  45.4951390  62.6549610
  70.1819260  44.6937120  62.9262220  59.8456830  47.1620760  56.0405880
  60.6120100  47.0502120  56.6031310  59.9231520  46.4658730  55.3882650
  58.5403590  44.5945830  56.7238770  58.6207180  43.6473340  56.8356170
  59.4323340  44.9252710  56.8299430  59.3418300  54.7441220  63.8273310
  60.0780780  54.1956680  64.0981880  59.7259220  55.6097230  63.6879300
  56.2263780  50.8114790  59.7014820  55.3003560  51.0535930  59.6920230
  56.6920210  51.6389050  59.5799570  62.4520610  53.9171530  55.6498880
  63.2449220  54.2060360  55.1980670  61.9324960  53.4863700  54.9711360
  62.9698010  49.1374940  55.5141230  62.8648650  48.5227290  56.2402610
  62.8022230  48.6140830  54.7304240  66.2100740  48.1994970  56.1183220
  65.6610840  48.6464270  56.7625960  66.8320000  47.6944220  56.6420890
  61.8775860  47.1585890  58.0148520  62.2992280  46.9925760  58.8579910
  62.0026700  46.3486120  57.5203660  64.3903500  46.1823500  55.2625620
  64.9109160  45.4672520  54.8966770  65.0371900  46.8209370  55.5626130
  63.2937020  38.6618050  67.9344180  62.8454320  38.6842310  67.0889730
  62.6602220  38.2637070  68.5314480  63.6996570  47.5572380  68.5556620
  64.1184680  48.4005110  68.3832860  62.7805200  47.6944420  68.3263400
  68.3748370  45.8425750  68.5156970  67.8483590  46.3668370  67.9122110
  68.7179710  46.4753140  69.1466700  60.7734760  43.2319120  54.9606680
  60.5723820  42.3686480  55.3220020  60.6026810  43.1452480  54.0228280
  61.5503990  53.8625390  69.6714350  61.0125080  54.5871450  69.3523050
  61.8037950  53.3855730  68.8811690  68.2523070  38.0427350  57.4893560
  68.5325360  37.1995250  57.8452980  67.4788800  38.2750460  58.0032310
  59.5717560  40.3319740  54.9484560  59.8743460  40.3387170  54.0403710
  60.3112150  39.9817600  55.4452220  64.4066200  55.0976600  69.9301000
  64.3324900  56.0011740  70.2373370  63.5045040  54.7788500  69.9023070
  62.7902490  39.2754360  55.9340760  62.4424490  38.5978350  55.3543210
  62.9915260  38.8143870  56.7484150  64.9551530  54.2635110  57.5527360
  65.8502320  54.6020080  57.5746120  64.9869160  53.5414520  56.9251640
  58.5947690  49.6362160  55.7814360  59.0322560  50.1791830  56.4371940
  59.0795420  48.8109110  55.7910700  55.8093490  52.4251190  63.2334620
  56.1396500  51.5572250  63.0013260  56.2384490  52.6309710  64.0639580
  60.4055410  50.7560200  60.8936590  60.1050950  50.6325170  61.7940500
  60.2992900  49.8968790  60.4852320  56.2983700  53.2921780  65.9716250
  55.8614690  53.4722580  66.8040400  56.8661380  54.0496400  65.8297970
  56.1308130  45.8042010  62.3305130  55.4756970  45.5353650  61.6864830
  56.9686080  45.6946490  61.8807110  69.0798570  40.5983300  56.5523620
  69.4983450  40.4114280  55.7120280  68.7734630  39.7462350  56.8626550
  57.1684060  46.1894580  66.8708470  57.5357100  46.1021980  67.7504490
  56.5994880  45.4261130  66.7715330  55.3446210  43.0140940  58.2730460
  54.4410290  43.2771140  58.0982120  55.8286830  43.2852110  57.4930420
  57.8873420  42.0706480  56.1824840  58.5965120  41.6489700  55.6972120
  57.1713360  42.1381710  55.5508190  57.5347580  38.1245810  55.2227490
  58.2575710  38.6654750  55.5408710  57.8072100  37.8509230  54.3469030
  57.2239770  37.3752000  65.1250110  57.8715960  36.8249380  64.6845270
  57.6441610  37.6295150  65.9465920  56.9771770  37.5307670  67.8675430
  56.6286590  37.9871490  68.6333610  56.6459470  36.6364800  67.9497860
  62.2842170  52.2586860  67.6338340  62.0433530  52.5261420  66.7468860
  63.2244810  52.4292590  67.6889200  58.4224170  53.6489520  69.1526400
  57.8284490  53.5174220  69.8916440  58.4148010  52.8127660  68.6868500
  67.8679190  36.9421750  67.3556430  66.9939030  37.2756860  67.1529360
  67.7589940  36.4694930  68.1808300  68.7751170  39.1492620  68.7398150
  68.4464530  38.3344380  68.3599880  69.7233470  39.1062430  68.6163840
  58.0536400  51.0147900  68.1034440  57.3270460  50.3953190  68.0360390
  58.1145550  51.4088510  67.2332520  61.6581500  53.2292900  64.8883850
  62.1746520  52.6180260  64.3632110  62.3078880  53.7321680  65.3794860
  64.3977000  54.1201390  65.7152830  64.6854810  53.8655690  64.8385840
  64.9100220  53.5678750  66.3058400  65.6154010  37.8591590  66.2949340
  64.8325800  38.3337090  66.5746100  65.3216940  36.9546420  66.1862520
  70.1675080  38.5614690  64.3398430  70.6083170  38.5059790  63.4920030
  69.8982670  39.4772700  64.4108610  56.3366400  54.3322290  61.3131200
  56.1688440  53.6992970  62.0113090  55.4700910  54.5381690  60.9625390
  56.9594420  38.1639070  58.8163060  57.7173780  38.2767950  58.2427090
  56.4971590  39.0008270  58.7706490  63.5008230  40.2778340  61.8065370
  62.6882740  39.9035230  61.4661250  64.0049870  39.5223420  62.1086560
  68.0033210  36.9420790  63.0448440  68.6062580  37.5141000  63.5196960
  67.2626200  37.5060230  62.8222340  57.9429100  53.0255520  58.7581340
  57.4176720  53.4063550  58.0543300  57.8673680  53.6506290  59.4791050
  59.3319570  38.6903120  57.3565030  59.8612330  37.9032920  57.2272980
  59.9647890  39.3694310  57.5900560  61.5257410  38.4278260  60.4110420
  60.8960150  37.7265570  60.5780550  60.9862550  39.1882390  60.1943580
  60.5422070  54.9737900  57.6330590  61.2740890  54.6897180  57.0854480
  60.8015740  54.7351180  58.5229970  59.7036860  51.0902630  57.6376920
  59.0745740  51.5587730  58.1862750  59.8184690  50.2451850  58.0723110
  67.1586580  45.1408290  43.7878120  67.0780630  44.2262900  43.5169830
  66.7451000  45.6375360  43.0817830  65.2904620  46.9187310  45.6687390
  64.5146720  46.4387750  45.9585960  65.9417550  46.2392960  45.4943550
  59.3070450  47.2307120  46.5463150  58.4755330  46.9755830  46.9459660
  59.9151430  47.3017890  47.2821070  69.3112050  51.3247500  44.4486520
  68.8493580  50.5534740  44.7773690  70.1237600  51.3513570  44.9538970
  59.2871710  51.2647210  46.7421170  59.5899750  50.3744950  46.5631390
  60.0315300  51.8217430  46.5143420  57.7162400  42.1909010  40.3305540
  56.8279100  42.5324980  40.2285420  58.0003590  41.9909330  39.4386370
  55.6795410  44.7914660  46.2145240  56.2511520  44.0236860  46.2148880
  55.6796950  45.0903420  45.3051850  65.5375360  53.6105510  44.0690510
  64.9186800  54.0663010  43.4984950  66.3927140  53.7656970  43.6680210
  64.7313610  49.5944500  45.6757550  64.6621890  48.6534440  45.5146680
  65.4933470  49.6845910  46.2480120  56.9220280  40.1999020  48.0014170
  56.7423120  39.3024770  48.2816930  56.5200360  40.7470890  48.6761120
  65.7618780  42.4014880  45.9026480  66.1383600  41.5286760  45.7900150
  65.6638290  42.7373580  45.0116920  59.8923790  40.7740510  41.3643920
  59.9990540  41.6744240  41.6712680  58.9816150  40.7258480  41.0738570
  69.5442900  39.8965320  42.8354820  70.3652520  39.4061890  42.8780300
  69.5776980  40.4862980  43.5886660  57.5406950  42.6959520  46.6096510
  58.2217060  42.9597890  47.2283910  57.2255000  41.8560390  46.9434520
  61.7331520  43.7426880  45.6969100  62.2409740  44.2407850  46.3374120
  62.2644760  42.9662080  45.5208460  60.0167620  38.3825440  49.9632520
  60.0186060  38.8997830  49.1578420  59.1871930  37.9055620  49.9402450
  66.4038710  48.4944750  41.4622420  65.7855980  48.9594200  40.8985140
  66.9161960  49.1872230  41.8791930  61.2670470  48.0220620  48.1406020
  60.9339850  48.6489540  48.7827090  61.4437150  48.5482500  47.3607690
  69.7804380  41.8365700  45.6082360  69.0759950  42.1250590  46.1885470
  70.1416540  42.6465810  45.2481920  59.6982950  40.0935400  47.9702970
  60.0399760  40.9377450  47.6756840  58.7598760  40.2419140  48.0868310
  60.4789570  49.9901420  49.9555200  61.0963570  50.6652500  49.6739650
  59.6182690  50.3989400  49.8642700  55.7721910  49.1801280  38.8362050
  55.3949890  49.6688380  38.1046950  56.0294980  49.8526560  39.4668580
  63.3810840  37.5817670  44.2947560  63.6885820  37.0264560  43.5783060
  62.4511540  37.7162130  44.1120550  68.9325900  53.2984960  46.5855020
  68.9453060  52.8947250  45.7177280  68.3801120  54.0732250  46.4816450
  70.2271320  50.0201180  41.6745190  70.1167650  49.0775510  41.7994610
  70.2239570  50.3816820  42.5607950  68.3311340  48.2014800  47.9137630
  68.7480130  47.9874910  47.0791090  69.0551160  48.4587590  48.4846250
  65.7691600  45.6466500  41.0307680  64.8420880  45.5803880  41.2596150
  65.9216420  46.5846630  40.9162920  65.7560680  41.9183500  38.0274840
  64.8164350  42.0797460  38.1127300  66.0743940  42.6369180  37.4810830
  69.7988890  47.2086800  41.5342930  69.1801310  46.8706350  40.8869230
  69.7813340  46.5646560  42.2422120  69.2415450  43.3871340  48.9508740
  68.8286630  44.2125050  49.2048730  68.5091400  42.8016380  48.7585100
  61.3748240  46.1731240  43.8127410  60.9705240  45.4608490  43.3173310
  61.4611360  45.8284480  44.7015450  61.8429940  49.8598800  45.9766620
  61.5458230  49.2544270  45.2974400  62.7929760  49.8976110  45.8655980
  60.0876860  42.9474450  47.5926450  60.6391450  43.0569790  46.8179700
  60.6020370  43.3212050  48.3081680  69.9315550  53.4330670  49.6389720
  69.4546110  54.2402860  49.4462330  69.2477340  52.7809000  49.7915930
  60.9348370  49.5980490  52.6274420  60.0376900  49.8220460  52.8747820
  60.9601240  49.7215430  51.6785820  67.9753590  46.4473610  38.5415680
  68.4146870  45.6096040  38.3953500  68.6882010  47.0803010  38.6279820
  59.7619590  46.4693810  51.2031790  59.6227360  47.3416610  51.5719190
  58.8800950  46.1266620  51.0579730  66.0848970  51.3869680  42.5096920
  66.5244880  52.1294010  42.0952310  66.0235860  51.6296250  43.4335880
  61.5599940  52.4115510  53.4116940  61.5315370  52.8158460  52.5445370
  61.3964910  51.4825870  53.2488540  58.0752870  45.0676220  41.3134060
  57.9550470  45.7938310  40.7015330  57.7653760  44.2979130  40.8361970
  55.7138240  48.2391360  47.1202700  55.7918660  48.3740130  46.1758420
  56.3279920  47.5307250  47.3130820  56.9585870  49.9391550  43.5308880
  56.5513950  50.0806140  42.6762480  57.8498880  49.6551710  43.3280090
  66.7764750  54.0883460  50.4375930  67.2909420  53.9991470  51.2398360
  65.9333830  54.4343160  50.7303840  68.7519150  54.3738800  39.8659930
  68.5920290  54.0841740  40.7641760  68.5865860  53.5978930  39.3305160
  61.2307530  54.1537330  41.6431550  61.0550010  53.2372870  41.4299350
  60.3763270  54.5124620  41.8829350  68.4545280  51.8826360  38.4257930
  67.7610440  51.8803650  37.7660210  69.1968140  51.4585680  37.9952100
  68.0195210  53.5089070  42.5006420  68.4752160  52.7278450  42.8145040
  68.3587730  54.2195890  43.0447600  55.7697760  49.2805530  49.6597160
  55.9328800  48.8110890  48.8416530  56.2350210  48.7729090  50.3246000
  60.5416530  38.4111290  44.6957730  60.0984680  39.1920830  44.3642250
  61.1001520  38.7341180  45.4028670  64.8286340  41.2779810  50.2993050
  64.3665710  41.4862830  51.1112990  64.4264450  40.4639160  49.9963720
  69.8290850  42.4988760  51.4289710  68.9784440  42.1994510  51.7498780
  69.6692640  42.7430770  50.5173530  66.9240560  43.9990510  53.5288500
  67.2493970  43.1654260  53.1890730  67.7120890  44.5219030  53.6766830
  63.6575350  38.0321990  39.5763560  63.0329530  38.0281860  40.3016870
  63.5705470  37.1652950  39.1799530  62.5792430  38.9558620  46.5547330
  62.8764760  39.8621450  46.4739350  63.1277990  38.4677400  45.9406900
  60.3330750  43.5344860  42.4238980  60.1071670  43.3182030  43.3285600
  59.5523280  43.9673320  42.0784950  67.5628510  43.5408230  41.0229630
  66.9637400  44.2644030  40.8393250  68.1108120  43.4785010  40.2406080
  62.7729960  44.4330440  53.0899250  62.6773560  43.4925170  52.9399650
  63.6161940  44.6545510  52.6947320  66.1693380  42.1771770  43.0532910
  66.5622950  42.4943970  42.2401600  66.5310230  41.2983650  43.1677430
  57.9040500  40.8444110  51.2433030  57.5103890  41.6919320  51.4505810
  57.2158900  40.2070480  51.4341670  64.4785550  40.9279080  54.3129770
  63.7883870  40.7351280  54.9475860  65.2217850  41.2113720  54.8454070
  55.2057550  38.7672570  45.2763110  54.9170600  39.3375430  45.9888090
  55.9503310  38.2877020  45.6394340  55.3927780  42.7092690  36.4865830
  55.3102450  43.6523450  36.6280820  55.0410840  42.5667600  35.6078180
  66.7548520  44.7677520  47.1483690  66.0229640  45.2764330  47.4973790
  66.3572860  43.9507500  46.8472470  63.1925910  41.4431720  45.5536180
  63.1961970  41.0021670  44.7040720  64.0877030  41.7649050  45.6608000
  59.0428290  41.3258210  44.5130390  58.7028340  41.8033440  45.2697440
  58.2805610  40.8723330  44.1531490  63.2546060  42.4443800  38.5442940
  63.3758880  42.4030280  39.4928760  62.8694570  43.3067950  38.3889670
  67.2174430  40.2211200  46.5606630  67.2347170  40.6719850  47.4048480
  66.9690010  39.3216840  46.7740070  62.2667560  44.7544940  37.9426240
  61.6984460  44.3063190  37.3162150  62.9756560  45.1137720  37.4091390
  70.6445180  37.6343380  52.3993010  70.9690950  36.9033040  52.9250990
  70.6801690  37.3157020  51.4974000  57.3436740  48.6556960  51.8192970
  56.9591530  48.0150630  52.4175930  57.6548930  49.3593080  52.3887700
  63.4933880  45.5033500  47.3001590  63.8604010  45.0292070  48.0462930
  63.3038940  46.3775070  47.6409930  56.3574370  40.2477190  43.4295060
  56.0721290  39.8832860  44.2673680  56.2953230  39.5157650  42.8158200
  61.2833250  44.5442140  49.6185800  60.9790320  45.4234120  49.8436160
  62.2379710  44.6041930  49.6543240  59.8115040  48.7503130  40.2152650
  59.0377300  48.2100750  40.0551370  60.5409670  48.2309740  39.8770410
  66.0312960  39.1406450  40.1508430  65.2177570  38.6419620  40.0753740
  65.8374910  39.9804700  39.7344780  65.9521820  47.8177550  51.8948040
  65.8859130  46.8973220  51.6405630  65.3226960  47.9152990  52.6092680
  68.7461350  43.5126100  38.4470590  69.6340970  43.8243330  38.2721930
  68.7166440  42.6398350  38.0551170  59.8552440  48.4183510  43.8531460
  60.3731110  47.6151770  43.7988350  59.4036460  48.3562650  44.6948290
  64.7421940  49.6849790  39.1258760  65.0837640  50.4292020  38.6302080
  63.9134650  49.9980910  39.4883590  57.3396980  45.3844880  50.7657160
  56.9811920  46.0498730  51.3530500  57.0451540  44.5528430  51.1369780
  60.5410100  45.8429120  53.6496710  60.2410240  45.9886300  52.7524530
  61.3121340  45.2834410  53.5570100  65.8838550  50.6398120  51.6451840
  65.8983090  49.7079080  51.4270750  65.1763650  50.7257880  52.2841610
  67.6249350  49.0065630  44.4904270  67.9773170  48.4093760  43.8305640
  66.7411680  48.6809860  44.6612520  63.7112630  49.7663320  41.8974680
  64.3983760  50.3132530  42.2782270  62.9245050  50.3104050  41.9324290
  55.8505030  45.3836140  37.3891760  56.7199880  45.6660940  37.6727680
  55.3595350  46.1972010  37.2740570  63.0139840  46.7709350  41.5100040
  63.4702620  47.5814600  41.7360230  62.6628050  46.4532490  42.3418530
  65.3172450  52.2815690  48.7392340  65.9614670  52.4875070  49.4165760
  65.6801890  51.5204090  48.2863190  58.9151620  37.1147000  41.9822560
  58.7866250  37.1064900  42.9307480  58.0913640  37.4530090  41.6313570
  66.5904530  50.2848040  47.4569790  67.2326760  49.5841200  47.5701960
  67.1153880  51.0646480  47.2766680  70.4360250  50.5696660  37.1808930
  70.2097830  49.8527100  37.7733570  70.0456450  50.3209100  36.3430680
  68.3642150  51.0842940  50.6605850  68.6998390  51.6709630  51.3383770
  67.4442490  50.9535650  50.8903640  56.2176280  54.5963520  37.9553390
  56.5773920  55.1952860  37.3010660  56.0768620  55.1423410  38.7288420
  55.9145550  38.8738120  51.4429260  55.2004070  39.0735040  52.0481870
  56.3340590  38.0977690  51.8144060  70.0176500  48.4868600  38.8423090
  69.7298200  48.9481290  39.6300970  70.8128670  48.0266370  39.1107310
  56.2018140  52.8618380  52.4295790  56.3109260  51.9213120  52.2891180
  55.5498700  53.1273130  51.7809520  64.1930730  51.1334270  53.8293910
  63.8727600  50.4143510  54.3739600  63.5189090  51.8089340  53.9029970
  62.2344900  51.9794720  38.7727060  62.2255000  52.7124410  38.1571570
  61.3143260  51.7326300  38.8654020  57.8351540  47.2009610  39.5173820
  57.2279490  47.9408510  39.5269120  58.3100890  47.2908970  38.6912020
  67.4084330  41.3660430  49.1930710  67.7765150  40.5455640  49.5210280
  66.5482530  41.4262320  49.6086360  70.7746360  40.3217370  40.0018270
  70.1459520  40.4263040  39.2876500  70.2798280  40.5414150  40.7912150
  65.2204500  52.0422960  37.4352250  65.3216480  51.8386950  36.5054230
  64.3206240  51.7881240  37.6400030  62.7430390  42.6003320  41.4176150
  62.0346540  43.0689660  41.8589760  63.0274870  41.9425330  42.0521340
  64.3686320  44.0200020  49.4168680  64.8671570  44.4945840  50.0820530
  64.5109270  43.0963540  49.6238710  66.7745820  39.3253980  42.8571940
  66.6513600  39.3440110  41.9081450  67.7230380  39.3732920  42.9770340
  63.8622610  54.5609280  42.1299920  64.1164110  54.5230670  41.2079290
  62.9135090  54.4342610  42.1228170  60.9465410  40.9088400  38.7926860
  61.7955940  41.3458550  38.7267050  60.5796680  41.2208660  39.6198920
  69.8675190  45.4801160  43.7058430  68.9265330  45.4951390  43.8806120
  70.1819260  44.6937120  44.1518730  59.8456830  47.1620760  37.2662390
  60.6120100  47.0502120  37.8287820  59.9231520  46.4658730  36.6139160
  58.5403590  44.5945830  37.9495280  58.6207180  43.6473340  38.0612680
  59.4323340  44.9252710  38.0555940  59.3418300  54.7441220  45.0529820
  60.0780780  54.1956680  45.3238390  59.7259220  55.6097230  44.9135810
  56.2263780  50.8114790  40.9271330  55.3003560  51.0535930  40.9176740
  56.6920210  51.6389050  40.8056080  58.3476580  53.9287290  54.2415400
  59.1489310  54.2499340  54.6550800  57.8328400  53.5682870  54.9635310
  62.4520610  53.9171530  36.8755390  63.2449220  54.2060360  36.4237180
  61.9324960  53.4863700  36.1967870  67.1841210  50.0367160  54.1890810
  66.5779370  50.0598760  53.4486560  66.8795320  49.3050200  54.7258060
  68.6141580  53.7647450  52.8000220  69.5663330  53.6805470  52.7500460
  68.4669800  54.4289160  53.4734010  56.0674390  46.4160750  53.1851450
  56.5713410  45.8368030  53.7567680  55.3281810  46.7000980  53.7227820
  62.9698010  49.1374940  36.7397740  62.8648650  48.5227290  37.4659120
  62.8022230  48.6140830  35.9560750  63.1212330  47.8231740  52.7186970
  62.3558000  48.3916740  52.6341640  63.3028290  47.5307950  51.8255200
  66.2100740  48.1994970  37.3439730  65.6610840  48.6464270  37.9882470
  66.8320000  47.6944220  37.8677400  70.2635680  49.5537070  53.2761990
  71.0045150  49.8912830  52.7729450  69.5008360  49.7229130  52.7231760
  58.0997470  44.5590340  54.0801520  58.1402810  44.2604210  54.9886750
  58.9542970  44.9597950  53.9209040  61.8775860  47.1585890  39.2405030
  62.2992280  46.9925760  40.0836420  62.0026700  46.3486120  38.7460170
  60.0403280  43.1382440  52.0476010  59.5099740  42.6473390  51.4199350
  60.7091350  43.5666640  51.5133940  64.3903500  46.1823500  36.4882130
  64.9109160  45.4672520  36.1223280  65.0371900  46.8209370  36.7882640
  68.9381340  47.6051900  51.8117200  69.3522360  47.7596980  52.6607620
  68.0032340  47.7307120  51.9742980  69.4103510  44.9448060  53.8156350
  69.9924280  44.1900380  53.7276830  69.5865280  45.4755500  53.0387830
  60.5275580  40.1044810  52.1273300  60.4332450  39.4865560  51.4024170
  59.9472970  40.8311100  51.9003210  63.2937020  38.6618050  49.1600690
  62.8454320  38.6842310  48.3146240  62.6602220  38.2637070  49.7570990
  63.6996570  47.5572380  49.7813130  64.1184680  48.4005110  49.6089370
  62.7805200  47.6944420  49.5519910  66.0360470  45.2888560  51.1650970
  66.1556680  44.6929700  51.9045810  66.8954470  45.3258250  50.7452270
  68.3748370  45.8425750  49.7413480  67.8483590  46.3668370  49.1378620
  68.7179710  46.4753140  50.3723210  60.7734760  43.2319120  36.1863190
  60.5723820  42.3686480  36.5476530  60.6026810  43.1452480  35.2484790
  61.5503990  53.8625390  50.8970860  61.0125080  54.5871450  50.5779560
  61.8037950  53.3855730  50.1068200  62.8029240  41.8309910  52.4226790
  63.3928930  41.5225760  53.1104610  61.9849480  41.3589660  52.5786690
  67.6222670  41.4475720  52.6559810  66.9338190  40.7857260  52.5909800
  68.3428690  41.0013990  53.1008270  68.2523070  38.0427350  38.7150070
  68.5325360  37.1995250  39.0709490  67.4788800  38.2750460  39.2288820
  59.5717560  40.3319740  36.1741070  59.8743460  40.3387170  35.2660220
  60.3112150  39.9817600  36.6708730  64.4066200  55.0976600  51.1557510
  64.3324900  56.0011740  51.4629880  63.5045040  54.7788500  51.1279580
  62.7902490  39.2754360  37.1597270  62.4424490  38.5978350  36.5799720
  62.9915260  38.8143870  37.9740660  64.9551530  54.2635110  38.7783870
  65.8502320  54.6020080  38.8002630  64.9869160  53.5414520  38.1508150
  58.5947690  49.6362160  37.0070870  59.0322560  50.1791830  37.6628450
  59.0795420  48.8109110  37.0167210  55.8093490  52.4251190  44.4591130
  56.1396500  51.5572250  44.2269770  56.2384490  52.6309710  45.2896090
  60.4055410  50.7560200  42.1193100  60.1050950  50.6325170  43.0197010
  60.2992900  49.8968790  41.7108830  56.2983700  53.2921780  47.1972760
  55.8614690  53.4722580  48.0296910  56.8661380  54.0496400  47.0554480
  56.1308130  45.8042010  43.5561640  55.4756970  45.5353650  42.9121340
  56.9686080  45.6946490  43.1063620  69.0798570  40.5983300  37.7780130
  69.4983450  40.4114280  36.9376790  68.7734630  39.7462350  38.0883060
  57.1684060  46.1894580  48.0964980  57.5357100  46.1021980  48.9761000
  56.5994880  45.4261130  47.9971840  56.7200060  43.1003670  52.0023400
  55.8256110  43.0670430  52.3417110  57.2597610  43.2990460  52.7674650
  55.3446210  43.0140940  39.4986970  54.4410290  43.2771140  39.3238630
  55.8286830  43.2852110  38.7186930  57.8873420  42.0706480  37.4081350
  58.5965120  41.6489700  36.9228630  57.1713360  42.1381710  36.7764700
  57.5347580  38.1245810  36.4484000  58.2575710  38.6654750  36.7665220
  57.8072100  37.8509230  35.5725540  57.2239770  37.3752000  46.3506620
  57.8715960  36.8249380  45.9101780  57.6441610  37.6295150  47.1722430
  56.9771770  37.5307670  49.0931940  56.6286590  37.9871490  49.8590120
  56.6459470  36.6364800  49.1754370  58.5836140  50.7027270  53.2585130
  58.5405770  50.3320180  54.1399590  58.7147150  51.6404840  53.3986950
  62.2842170  52.2586860  48.8594850  62.0433530  52.5261420  47.9725370
  63.2244810  52.4292590  48.9145710  64.4896590  38.7219550  52.6151360
  64.4285480  39.3141380  53.3646770  65.4296970  38.6145510  52.4701620
  67.1271150  38.3789610  52.2543650  67.7411560  38.6968900  51.5924730
  67.6720710  37.8938200  52.8739510  57.6492410  37.0583870  52.3682710
  58.1975400  36.8771920  51.6048820  57.7147720  36.2677980  52.9039020
  58.4224170  53.6489520  50.3782910  57.8284490  53.5174220  51.1172950
  58.4148010  52.8127660  49.9125010  67.8679190  36.9421750  48.5812940
  66.9939030  37.2756860  48.3785870  67.7589940  36.4694930  49.4064810
  68.7751170  39.1492620  49.9654660  68.4464530  38.3344380  49.5856390
  69.7233470  39.1062430  49.8420350  58.0536400  51.0147900  49.3290950
  57.3270460  50.3953190  49.2616900  58.1145550  51.4088510  48.4589030
  61.6581500  53.2292900  46.1140360  62.1746520  52.6180260  45.5888620
  62.3078880  53.7321680  46.6051370  64.3977000  54.1201390  46.9409340
  64.6854810  53.8655690  46.0642350  64.9100220  53.5678750  47.5314910
  65.6154010  37.8591590  47.5205850  64.8325800  38.3337090  47.8002610
  65.3216940  36.9546420  47.4119030  70.1675080  38.5614690  45.5654940
  70.6083170  38.5059790  44.7176540  69.8982670  39.4772700  45.6365120
  56.3366400  54.3322290  42.5387710  56.1688440  53.6992970  43.2369600
  55.4700910  54.5381690  42.1881900  56.9594420  38.1639070  40.0419570
  57.7173780  38.2767950  39.4683600  56.4971590  39.0008270  39.9963000
  63.5008230  40.2778340  43.0321880  62.6882740  39.9035230  42.6917760
  64.0049870  39.5223420  43.3343070  68.0033210  36.9420790  44.2704950
  68.6062580  37.5141000  44.7453470  67.2626200  37.5060230  44.0478850
  57.9429100  53.0255520  39.9837850  57.4176720  53.4063550  39.2799810
  57.8673680  53.6506290  40.7047560  59.3319570  38.6903120  38.5821540
  59.8612330  37.9032920  38.4529490  59.9647890  39.3694310  38.8157070
  61.5257410  38.4278260  41.6366930  60.8960150  37.7265570  41.8037060
  60.9862550  39.1882390  41.4200090  64.4649360  55.0417490  54.3077540
  65.3916670  54.8061760  54.3513500  64.4499790  55.8689490  53.8263570
  61.6512970  37.7062240  54.0719420  61.3697240  38.2095840  53.3080240
  62.0332670  36.9083990  53.7061550  60.5422070  54.9737900  38.8587100
  61.2740890  54.6897180  38.3110990  60.8015740  54.7351180  39.7486480
  59.7036860  51.0902630  38.8633430  59.0745740  51.5587730  39.4119260
  59.8184690  50.2451850  39.2979620  68.2528430  37.1215820  54.6499890
  68.1393880  37.4410430  55.5451410  69.0698170  37.5228330  54.3537170
  67.1586580  45.1408290  25.0134630  67.0780630  44.2262900  24.7426340
  66.7451000  45.6375360  24.3074340  65.2904620  46.9187310  26.8943900
  64.5146720  46.4387750  27.1842470  65.9417550  46.2392960  26.7200060
  59.3070450  47.2307120  27.7719660  58.4755330  46.9755830  28.1716170
  59.9151430  47.3017890  28.5077580  69.3112050  51.3247500  25.6743030
  68.8493580  50.5534740  26.0030200  70.1237600  51.3513570  26.1795480
  59.2871710  51.2647210  27.9677680  59.5899750  50.3744950  27.7887900
  60.0315300  51.8217430  27.7399930  57.7162400  42.1909010  21.5562050
  56.8279100  42.5324980  21.4541930  58.0003590  41.9909330  20.6642880
  55.6795410  44.7914660  27.4401750  56.2511520  44.0236860  27.4405390
  55.6796950  45.0903420  26.5308360  65.5375360  53.6105510  25.2947020
  64.9186800  54.0663010  24.7241460  66.3927140  53.7656970  24.8936720
  64.7313610  49.5944500  26.9014060  64.6621890  48.6534440  26.7403190
  65.4933470  49.6845910  27.4736630  56.9220280  40.1999020  29.2270680
  56.7423120  39.3024770  29.5073440  56.5200360  40.7470890  29.9017630
  65.7618780  42.4014880  27.1282990  66.1383600  41.5286760  27.0156660
  65.6638290  42.7373580  26.2373430  59.8923790  40.7740510  22.5900430
  59.9990540  41.6744240  22.8969190  58.9816150  40.7258480  22.2995080
  69.5442900  39.8965320  24.0611330  70.3652520  39.4061890  24.1036810
  69.5776980  40.4862980  24.8143170  57.5406950  42.6959520  27.8353020
  58.2217060  42.9597890  28.4540420  57.2255000  41.8560390  28.1691030
  61.7331520  43.7426880  26.9225610  62.2409740  44.2407850  27.5630630
  62.2644760  42.9662080  26.7464970  60.0167620  38.3825440  31.1889030
  60.0186060  38.8997830  30.3834930  59.1871930  37.9055620  31.1658960
  66.4038710  48.4944750  22.6878930  65.7855980  48.9594200  22.1241650
  66.9161960  49.1872230  23.1048440  61.2670470  48.0220620  29.3662530
  60.9339850  48.6489540  30.0083600  61.4437150  48.5482500  28.5864200
  69.7804380  41.8365700  26.8338870  69.0759950  42.1250590  27.4141980
  70.1416540  42.6465810  26.4738430  59.6982950  40.0935400  29.1959480
  60.0399760  40.9377450  28.9013350  58.7598760  40.2419140  29.3124820
  60.4789570  49.9901420  31.1811710  61.0963570  50.6652500  30.8996160
  59.6182690  50.3989400  31.0899210  55.7721910  49.1801280  20.0618560
  55.3949890  49.6688380  19.3303460  56.0294980  49.8526560  20.6925090
  63.3810840  37.5817670  25.5204070  63.6885820  37.0264560  24.8039570
  62.4511540  37.7162130  25.3377060  68.9325900  53.2984960  27.8111530
  68.9453060  52.8947250  26.9433790  68.3801120  54.0732250  27.7072960
  70.2271320  50.0201180  22.9001700  70.1167650  49.0775510  23.0251120
  70.2239570  50.3816820  23.7864460  68.3311340  48.2014800  29.1394140
  68.7480130  47.9874910  28.3047600  69.0551160  48.4587590  29.7102760
  65.7691600  45.6466500  22.2564190  64.8420880  45.5803880  22.4852660
  65.9216420  46.5846630  22.1419430  65.7560680  41.9183500  19.2531350
  64.8164350  42.0797460  19.3383810  66.0743940  42.6369180  18.7067340
  69.7988890  47.2086800  22.7599440  69.1801310  46.8706350  22.1125740
  69.7813340  46.5646560  23.4678630  69.2415450  43.3871340  30.1765250
  68.8286630  44.2125050  30.4305240  68.5091400  42.8016380  29.9841610
  61.3748240  46.1731240  25.0383920  60.9705240  45.4608490  24.5429820
  61.4611360  45.8284480  25.9271960  61.8429940  49.8598800  27.2023130
  61.5458230  49.2544270  26.5230910  62.7929760  49.8976110  27.0912490
  60.0876860  42.9474450  28.8182960  60.6391450  43.0569790  28.0436210
  60.6020370  43.3212050  29.5338190  69.9315550  53.4330670  30.8646230
  69.4546110  54.2402860  30.6718840  69.2477340  52.7809000  31.0172440
  60.9348370  49.5980490  33.8530930  60.0376900  49.8220460  34.1004330
  60.9601240  49.7215430  32.9042330  67.9753590  46.4473610  19.7672190
  68.4146870  45.6096040  19.6210010  68.6882010  47.0803010  19.8536330
  59.7619590  46.4693810  32.4288300  59.6227360  47.3416610  32.7975700
  58.8800950  46.1266620  32.2836240  66.0848970  51.3869680  23.7353430
  66.5244880  52.1294010  23.3208820  66.0235860  51.6296250  24.6592390
  61.5599940  52.4115510  34.6373450  61.5315370  52.8158460  33.7701880
  61.3964910  51.4825870  34.4745050  58.0752870  45.0676220  22.5390570
  57.9550470  45.7938310  21.9271840  57.7653760  44.2979130  22.0618480
  55.7138240  48.2391360  28.3459210  55.7918660  48.3740130  27.4014930
  56.3279920  47.5307250  28.5387330  56.9585870  49.9391550  24.7565390
  56.5513950  50.0806140  23.9018990  57.8498880  49.6551710  24.5536600
  66.7764750  54.0883460  31.6632440  67.2909420  53.9991470  32.4654870
  65.9333830  54.4343160  31.9560350  68.7519150  54.3738800  21.0916440
  68.5920290  54.0841740  21.9898270  68.5865860  53.5978930  20.5561670
  61.2307530  54.1537330  22.8688060  61.0550010  53.2372870  22.6555860
  60.3763270  54.5124620  23.1085860  68.4545280  51.8826360  19.6514440
  67.7610440  51.8803650  18.9916720  69.1968140  51.4585680  19.2208610
  68.0195210  53.5089070  23.7262930  68.4752160  52.7278450  24.0401550
  68.3587730  54.2195890  24.2704110  55.7697760  49.2805530  30.8853670
  55.9328800  48.8110890  30.0673040  56.2350210  48.7729090  31.5502510
  60.5416530  38.4111290  25.9214240  60.0984680  39.1920830  25.5898760
  61.1001520  38.7341180  26.6285180  64.8286340  41.2779810  31.5249560
  64.3665710  41.4862830  32.3369500  64.4264450  40.4639160  31.2220230
  69.8290850  42.4988760  32.6546220  68.9784440  42.1994510  32.9755290
  69.6692640  42.7430770  31.7430040  66.9240560  43.9990510  34.7545010
  67.2493970  43.1654260  34.4147240  67.7120890  44.5219030  34.9023340
  63.6575350  38.0321990  20.8020070  63.0329530  38.0281860  21.5273380
  63.5705470  37.1652950  20.4056040  62.5792430  38.9558620  27.7803840
  62.8764760  39.8621450  27.6995860  63.1277990  38.4677400  27.1663410
  60.3330750  43.5344860  23.6495490  60.1071670  43.3182030  24.5542110
  59.5523280  43.9673320  23.3041460  67.5628510  43.5408230  22.2486140
  66.9637400  44.2644030  22.0649760  68.1108120  43.4785010  21.4662590
  62.7729960  44.4330440  34.3155760  62.6773560  43.4925170  34.1656160
  63.6161940  44.6545510  33.9203830  66.1693380  42.1771770  24.2789420
  66.5622950  42.4943970  23.4658110  66.5310230  41.2983650  24.3933940
  57.9040500  40.8444110  32.4689540  57.5103890  41.6919320  32.6762320
  57.2158900  40.2070480  32.6598180  64.4785550  40.9279080  35.5386280
  63.7883870  40.7351280  36.1732370  65.2217850  41.2113720  36.0710580
  55.2057550  38.7672570  26.5019620  54.9170600  39.3375430  27.2144600
  55.9503310  38.2877020  26.8650850  55.3927780  42.7092690  17.7122340
  55.3102450  43.6523450  17.8537330  55.0410840  42.5667600  16.8334690
  66.7548520  44.7677520  28.3740200  66.0229640  45.2764330  28.7230300
  66.3572860  43.9507500  28.0728980  63.1925910  41.4431720  26.7792690
  63.1961970  41.0021670  25.9297230  64.0877030  41.7649050  26.8864510
  59.0428290  41.3258210  25.7386900  58.7028340  41.8033440  26.4953950
  58.2805610  40.8723330  25.3788000  63.2546060  42.4443800  19.7699450
  63.3758880  42.4030280  20.7185270  62.8694570  43.3067950  19.6146180
  67.2174430  40.2211200  27.7863140  67.2347170  40.6719850  28.6304990
  66.9690010  39.3216840  27.9996580  62.2667560  44.7544940  19.1682750
  61.6984460  44.3063190  18.5418660  62.9756560  45.1137720  18.6347900
  70.6445180  37.6343380  33.6249520  70.9690950  36.9033040  34.1507500
  70.6801690  37.3157020  32.7230510  57.3436740  48.6556960  33.0449480
  56.9591530  48.0150630  33.6432440  57.6548930  49.3593080  33.6144210
  63.4933880  45.5033500  28.5258100  63.8604010  45.0292070  29.2719440
  63.3038940  46.3775070  28.8666440  56.3574370  40.2477190  24.6551570
  56.0721290  39.8832860  25.4930190  56.2953230  39.5157650  24.0414710
  61.2833250  44.5442140  30.8442310  60.9790320  45.4234120  31.0692670
  62.2379710  44.6041930  30.8799750  59.8115040  48.7503130  21.4409160
  59.0377300  48.2100750  21.2807880  60.5409670  48.2309740  21.1026920
  66.0312960  39.1406450  21.3764940  65.2177570  38.6419620  21.3010250
  65.8374910  39.9804700  20.9601290  65.9521820  47.8177550  33.1204550
  65.8859130  46.8973220  32.8662140  65.3226960  47.9152990  33.8349190
  68.7461350  43.5126100  19.6727100  69.6340970  43.8243330  19.4978440
  68.7166440  42.6398350  19.2807680  59.8552440  48.4183510  25.0787970
  60.3731110  47.6151770  25.0244860  59.4036460  48.3562650  25.9204800
  64.7421940  49.6849790  20.3515270  65.0837640  50.4292020  19.8558590
  63.9134650  49.9980910  20.7140100  57.3396980  45.3844880  31.9913670
  56.9811920  46.0498730  32.5787010  57.0451540  44.5528430  32.3626290
  60.5410100  45.8429120  34.8753220  60.2410240  45.9886300  33.9781040
  61.3121340  45.2834410  34.7826610  65.8838550  50.6398120  32.8708350
  65.8983090  49.7079080  32.6527260  65.1763650  50.7257880  33.5098120
  67.6249350  49.0065630  25.7160780  67.9773170  48.4093760  25.0562150
  66.7411680  48.6809860  25.8869030  63.7112630  49.7663320  23.1231190
  64.3983760  50.3132530  23.5038780  62.9245050  50.3104050  23.1580800
  55.8505030  45.3836140  18.6148270  56.7199880  45.6660940  18.8984190
  55.3595350  46.1972010  18.4997080  63.0139840  46.7709350  22.7356550
  63.4702620  47.5814600  22.9616740  62.6628050  46.4532490  23.5675040
  65.3172450  52.2815690  29.9648850  65.9614670  52.4875070  30.6422270
  65.6801890  51.5204090  29.5119700  58.9151620  37.1147000  23.2079070
  58.7866250  37.1064900  24.1563990  58.0913640  37.4530090  22.8570080
  66.5904530  50.2848040  28.6826300  67.2326760  49.5841200  28.7958470
  67.1153880  51.0646480  28.5023190  70.4360250  50.5696660  18.4065440
  70.2097830  49.8527100  18.9990080  70.0456450  50.3209100  17.5687190
  68.3642150  51.0842940  31.8862360  68.6998390  51.6709630  32.5640280
  67.4442490  50.9535650  32.1160150  56.2176280  54.5963520  19.1809900
  56.5773920  55.1952860  18.5267170  56.0768620  55.1423410  19.9544930
  55.9145550  38.8738120  32.6685770  55.2004070  39.0735040  33.2738380
  56.3340590  38.0977690  33.0400570  70.0176500  48.4868600  20.0679600
  69.7298200  48.9481290  20.8557480  70.8128670  48.0266370  20.3363820
  56.2018140  52.8618380  33.6552300  56.3109260  51.9213120  33.5147690
  55.5498700  53.1273130  33.0066030  64.1930730  51.1334270  35.0550420
  63.8727600  50.4143510  35.5996110  63.5189090  51.8089340  35.1286480
  62.2344900  51.9794720  19.9983570  62.2255000  52.7124410  19.3828080
  61.3143260  51.7326300  20.0910530  57.8351540  47.2009610  20.7430330
  57.2279490  47.9408510  20.7525630  58.3100890  47.2908970  19.9168530
  67.4084330  41.3660430  30.4187220  67.7765150  40.5455640  30.7466790
  66.5482530  41.4262320  30.8342870  70.7746360  40.3217370  21.2274780
  70.1459520  40.4263040  20.5133010  70.2798280  40.5414150  22.0168660
  65.2204500  52.0422960  18.6608760  65.3216480  51.8386950  17.7310740
  64.3206240  51.7881240  18.8656540  62.7430390  42.6003320  22.6432660
  62.0346540  43.0689660  23.0846270  63.0274870  41.9425330  23.2777850
  64.3686320  44.0200020  30.6425190  64.8671570  44.4945840  31.3077040
  64.5109270  43.0963540  30.8495220  66.7745820  39.3253980  24.0828450
  66.6513600  39.3440110  23.1337960  67.7230380  39.3732920  24.2026850
  63.8622610  54.5609280  23.3556430  64.1164110  54.5230670  22.4335800
  62.9135090  54.4342610  23.3484680  60.9465410  40.9088400  20.0183370
  61.7955940  41.3458550  19.9523560  60.5796680  41.2208660  20.8455430
  69.8675190  45.4801160  24.9314940  68.9265330  45.4951390  25.1062630
  70.1819260  44.6937120  25.3775240  59.8456830  47.1620760  18.4918900
  60.6120100  47.0502120  19.0544330  59.9231520  46.4658730  17.8395670
  58.5403590  44.5945830  19.1751790  58.6207180  43.6473340  19.2869190
  59.4323340  44.9252710  19.2812450  59.3418300  54.7441220  26.2786330
  60.0780780  54.1956680  26.5494900  59.7259220  55.6097230  26.1392320
  56.2263780  50.8114790  22.1527840  55.3003560  51.0535930  22.1433250
  56.6920210  51.6389050  22.0312590  58.3476580  53.9287290  35.4671910
  59.1489310  54.2499340  35.8807310  57.8328400  53.5682870  36.1891820
  62.4520610  53.9171530  18.1011900  63.2449220  54.2060360  17.6493690
  61.9324960  53.4863700  17.4224380  67.1841210  50.0367160  35.4147320
  66.5779370  50.0598760  34.6743070  66.8795320  49.3050200  35.9514570
  68.6141580  53.7647450  34.0256730  69.5663330  53.6805470  33.9756970
  68.4669800  54.4289160  34.6990520  56.0674390  46.4160750  34.4107960
  56.5713410  45.8368030  34.9824190  55.3281810  46.7000980  34.9484330
  62.9698010  49.1374940  17.9654250  62.8648650  48.5227290  18.6915630
  62.8022230  48.6140830  17.1817260  63.1212330  47.8231740  33.9443480
  62.3558000  48.3916740  33.8598150  63.3028290  47.5307950  33.0511710
  66.2100740  48.1994970  18.5696240  65.6610840  48.6464270  19.2138980
  66.8320000  47.6944220  19.0933910  70.2635680  49.5537070  34.5018500
  71.0045150  49.8912830  33.9985960  69.5008360  49.7229130  33.9488270
  58.0997470  44.5590340  35.3058030  58.1402810  44.2604210  36.2143260
  58.9542970  44.9597950  35.1465550  61.8775860  47.1585890  20.4661540
  62.2992280  46.9925760  21.3092930  62.0026700  46.3486120  19.9716680
  60.0403280  43.1382440  33.2732520  59.5099740  42.6473390  32.6455860
  60.7091350  43.5666640  32.7390450  64.3903500  46.1823500  17.7138640
  64.9109160  45.4672520  17.3479790  65.0371900  46.8209370  18.0139150
  68.9381340  47.6051900  33.0373710  69.3522360  47.7596980  33.8864130
  68.0032340  47.7307120  33.1999490  69.4103510  44.9448060  35.0412860
  69.9924280  44.1900380  34.9533340  69.5865280  45.4755500  34.2644340
  60.5275580  40.1044810  33.3529810  60.4332450  39.4865560  32.6280680
  59.9472970  40.8311100  33.1259720  63.2937020  38.6618050  30.3857200
  62.8454320  38.6842310  29.5402750  62.6602220  38.2637070  30.9827500
  63.6996570  47.5572380  31.0069640  64.1184680  48.4005110  30.8345880
  62.7805200  47.6944420  30.7776420  66.0360470  45.2888560  32.3907480
  66.1556680  44.6929700  33.1302320  66.8954470  45.3258250  31.9708780
  68.3748370  45.8425750  30.9669990  67.8483590  46.3668370  30.3635130
  68.7179710  46.4753140  31.5979720  60.7734760  43.2319120  17.4119700
  60.5723820  42.3686480  17.7733040  60.6026810  43.1452480  16.4741300
  61.5503990  53.8625390  32.1227370  61.0125080  54.5871450  31.8036070
  61.8037950  53.3855730  31.3324710  62.8029240  41.8309910  33.6483300
  63.3928930  41.5225760  34.3361120  61.9849480  41.3589660  33.8043200
  67.6222670  41.4475720  33.8816320  66.9338190  40.7857260  33.8166310
  68.3428690  41.0013990  34.3264780  68.2523070  38.0427350  19.9406580
  68.5325360  37.1995250  20.2966000  67.4788800  38.2750460  20.4545330
  59.5717560  40.3319740  17.3997580  59.8743460  40.3387170  16.4916730
  60.3112150  39.9817600  17.8965240  64.4066200  55.0976600  32.3814020
  64.3324900  56.0011740  32.6886390  63.5045040  54.7788500  32.3536090
  62.7902490  39.2754360  18.3853780  62.4424490  38.5978350  17.8056230
  62.9915260  38.8143870  19.1997170  64.9551530  54.2635110  20.0040380
  65.8502320  54.6020080  20.0259140  64.9869160  53.5414520  19.3764660
  58.5947690  49.6362160  18.2327380  59.0322560  50.1791830  18.8884960
  59.0795420  48.8109110  18.2423720  55.8093490  52.4251190  25.6847640
  56.1396500  51.5572250  25.4526280  56.2384490  52.6309710  26.5152600
  60.4055410  50.7560200  23.3449610  60.1050950  50.6325170  24.2453520
  60.2992900  49.8968790  22.9365340  56.2983700  53.2921780  28.4229270
  55.8614690  53.4722580  29.2553420  56.8661380  54.0496400  28.2810990
  56.1308130  45.8042010  24.7818150  55.4756970  45.5353650  24.1377850
  56.9686080  45.6946490  24.3320130  69.0798570  40.5983300  19.0036640
  69.4983450  40.4114280  18.1633300  68.7734630  39.7462350  19.3139570
  57.1684060  46.1894580  29.3221490  57.5357100  46.1021980  30.2017510
  56.5994880  45.4261130  29.2228350  56.7200060  43.1003670  33.2279910
  55.8256110  43.0670430  33.5673620  57.2597610  43.2990460  33.9931160
  55.3446210  43.0140940  20.7243480  54.4410290  43.2771140  20.5495140
  55.8286830  43.2852110  19.9443440  57.8873420  42.0706480  18.6337860
  58.5965120  41.6489700  18.1485140  57.1713360  42.1381710  18.0021210
  57.5347580  38.1245810  17.6740510  58.2575710  38.6654750  17.9921730
  57.8072100  37.8509230  16.7982050  57.2239770  37.3752000  27.5763130
  57.8715960  36.8249380  27.1358290  57.6441610  37.6295150  28.3978940
  56.9771770  37.5307670  30.3188450  56.6286590  37.9871490  31.0846630
  56.6459470  36.6364800  30.4010880  58.5836140  50.7027270  34.4841640
  58.5405770  50.3320180  35.3656100  58.7147150  51.6404840  34.6243460
  62.2842170  52.2586860  30.0851360  62.0433530  52.5261420  29.1981880
  63.2244810  52.4292590  30.1402220  64.4896590  38.7219550  33.8407870
  64.4285480  39.3141380  34.5903280  65.4296970  38.6145510  33.6958130
  67.1271150  38.3789610  33.4800160  67.7411560  38.6968900  32.8181240
  67.6720710  37.8938200  34.0996020  57.6492410  37.0583870  33.5939220
  58.1975400  36.8771920  32.8305330  57.7147720  36.2677980  34.1295530
  58.4224170  53.6489520  31.6039420  57.8284490  53.5174220  32.3429460
  58.4148010  52.8127660  31.1381520  67.8679190  36.9421750  29.8069450
  66.9939030  37.2756860  29.6042380  67.7589940  36.4694930  30.6321320
  68.7751170  39.1492620  31.1911170  68.4464530  38.3344380  30.8112900
  69.7233470  39.1062430  31.0676860  58.0536400  51.0147900  30.5547460
  57.3270460  50.3953190  30.4873410  58.1145550  51.4088510  29.6845540
  61.6581500  53.2292900  27.3396870  62.1746520  52.6180260  26.8145130
  62.3078880  53.7321680  27.8307880  64.3977000  54.1201390  28.1665850
  64.6854810  53.8655690  27.2898860  64.9100220  53.5678750  28.7571420
  65.6154010  37.8591590  28.7462360  64.8325800  38.3337090  29.0259120
  65.3216940  36.9546420  28.6375540  70.1675080  38.5614690  26.7911450
  70.6083170  38.5059790  25.9433050  69.8982670  39.4772700  26.8621630
  56.3366400  54.3322290  23.7644220  56.1688440  53.6992970  24.4626110
  55.4700910  54.5381690  23.4138410  56.9594420  38.1639070  21.2676080
  57.7173780  38.2767950  20.6940110  56.4971590  39.0008270  21.2219510
  63.5008230  40.2778340  24.2578390  62.6882740  39.9035230  23.9174270
  64.0049870  39.5223420  24.5599580  68.0033210  36.9420790  25.4961460
  68.6062580  37.5141000  25.9709980  67.2626200  37.5060230  25.2735360
  57.9429100  53.0255520  21.2094360  57.4176720  53.4063550  20.5056320
  57.8673680  53.6506290  21.9304070  59.3319570  38.6903120  19.8078050
  59.8612330  37.9032920  19.6786000  59.9647890  39.3694310  20.0413580
  61.5257410  38.4278260  22.8623440  60.8960150  37.7265570  23.0293570
  60.9862550  39.1882390  22.6456600  64.4649360  55.0417490  35.5334050
  65.3916670  54.8061760  35.5770010  64.4499790  55.8689490  35.0520080
  61.6512970  37.7062240  35.2975930  61.3697240  38.2095840  34.5336750
  62.0332670  36.9083990  34.9318060  60.5422070  54.9737900  20.0843610
  61.2740890  54.6897180  19.5367500  60.8015740  54.7351180  20.9742990
  59.7036860  51.0902630  20.0889940  59.0745740  51.5587730  20.6375770
  59.8184690  50.2451850  20.5236130  68.2528430  37.1215820  35.8756400
  68.1393880  37.4410430  36.7707920  69.0698170  37.5228330  35.5793680
  67.1586580  45.1408290   6.2391140  67.0780630  44.2262900   5.9682850
  66.7451000  45.6375360   5.5330850  65.2904620  46.9187310   8.1200410
  64.5146720  46.4387750   8.4098980  65.9417550  46.2392960   7.9456570
  59.3070450  47.2307120   8.9976170  58.4755330  46.9755830   9.3972680
  59.9151430  47.3017890   9.7334090  69.3112050  51.3247500   6.8999540
  68.8493580  50.5534740   7.2286710  70.1237600  51.3513570   7.4051990
  59.2871710  51.2647210   9.1934190  59.5899750  50.3744950   9.0144410
  60.0315300  51.8217430   8.9656440  57.7162400  42.1909010   2.7818560
  56.8279100  42.5324980   2.6798440  58.0003590  41.9909330   1.8899390
  55.6795410  44.7914660   8.6658260  56.2511520  44.0236860   8.6661900
  55.6796950  45.0903420   7.7564870  65.5375360  53.6105510   6.5203530
  64.9186800  54.0663010   5.9497970  66.3927140  53.7656970   6.1193230
  64.7313610  49.5944500   8.1270570  64.6621890  48.6534440   7.9659700
  65.4933470  49.6845910   8.6993140  56.9220280  40.1999020  10.4527190
  56.7423120  39.3024770  10.7329950  56.5200360  40.7470890  11.1274140
  65.7618780  42.4014880   8.3539500  66.1383600  41.5286760   8.2413170
  65.6638290  42.7373580   7.4629940  59.8923790  40.7740510   3.8156940
  59.9990540  41.6744240   4.1225700  58.9816150  40.7258480   3.5251590
  69.5442900  39.8965320   5.2867840  70.3652520  39.4061890   5.3293320
  69.5776980  40.4862980   6.0399680  57.5406950  42.6959520   9.0609530
  58.2217060  42.9597890   9.6796930  57.2255000  41.8560390   9.3947540
  61.7331520  43.7426880   8.1482120  62.2409740  44.2407850   8.7887140
  62.2644760  42.9662080   7.9721480  60.0167620  38.3825440  12.4145540
  60.0186060  38.8997830  11.6091440  59.1871930  37.9055620  12.3915470
  66.4038710  48.4944750   3.9135440  65.7855980  48.9594200   3.3498160
  66.9161960  49.1872230   4.3304950  61.2670470  48.0220620  10.5919040
  60.9339850  48.6489540  11.2340110  61.4437150  48.5482500   9.8120710
  69.7804380  41.8365700   8.0595380  69.0759950  42.1250590   8.6398490
  70.1416540  42.6465810   7.6994940  59.6982950  40.0935400  10.4215990
  60.0399760  40.9377450  10.1269860  58.7598760  40.2419140  10.5381330
  60.4789570  49.9901420  12.4068220  61.0963570  50.6652500  12.1252670
  59.6182690  50.3989400  12.3155720  63.3810840  37.5817670   6.7460580
  63.6885820  37.0264560   6.0296080  62.4511540  37.7162130   6.5633570
  68.9325900  53.2984960   9.0368040  68.9453060  52.8947250   8.1690300
  68.3801120  54.0732250   8.9329470  70.2271320  50.0201180   4.1258210
  70.1167650  49.0775510   4.2507630  70.2239570  50.3816820   5.0120970
  68.3311340  48.2014800  10.3650650  68.7480130  47.9874910   9.5304110
  69.0551160  48.4587590  10.9359270  65.7691600  45.6466500   3.4820700
  64.8420880  45.5803880   3.7109170  65.9216420  46.5846630   3.3675940
  69.7988890  47.2086800   3.9855950  69.1801310  46.8706350   3.3382250
  69.7813340  46.5646560   4.6935140  69.2415450  43.3871340  11.4021760
  68.8286630  44.2125050  11.6561750  68.5091400  42.8016380  11.2098120
  61.3748240  46.1731240   6.2640430  60.9705240  45.4608490   5.7686330
  61.4611360  45.8284480   7.1528470  61.8429940  49.8598800   8.4279640
  61.5458230  49.2544270   7.7487420  62.7929760  49.8976110   8.3169000
  60.0876860  42.9474450  10.0439470  60.6391450  43.0569790   9.2692720
  60.6020370  43.3212050  10.7594700  69.9315550  53.4330670  12.0902740
  69.4546110  54.2402860  11.8975350  69.2477340  52.7809000  12.2428950
  60.9348370  49.5980490  15.0787440  60.0376900  49.8220460  15.3260840
  60.9601240  49.7215430  14.1298840  59.7619590  46.4693810  13.6544810
  59.6227360  47.3416610  14.0232210  58.8800950  46.1266620  13.5092750
  66.0848970  51.3869680   4.9609940  66.5244880  52.1294010   4.5465330
  66.0235860  51.6296250   5.8848900  61.5599940  52.4115510  15.8629960
  61.5315370  52.8158460  14.9958390  61.3964910  51.4825870  15.7001560
  58.0752870  45.0676220   3.7647080  57.9550470  45.7938310   3.1528350
  57.7653760  44.2979130   3.2874990  55.7138240  48.2391360   9.5715720
  55.7918660  48.3740130   8.6271440  56.3279920  47.5307250   9.7643840
  56.9585870  49.9391550   5.9821900  56.5513950  50.0806140   5.1275500
  57.8498880  49.6551710   5.7793110  66.7764750  54.0883460  12.8888950
  67.2909420  53.9991470  13.6911380  65.9333830  54.4343160  13.1816860
  68.7519150  54.3738800   2.3172950  68.5920290  54.0841740   3.2154780
  68.5865860  53.5978930   1.7818180  61.2307530  54.1537330   4.0944570
  61.0550010  53.2372870   3.8812370  60.3763270  54.5124620   4.3342370
  68.0195210  53.5089070   4.9519440  68.4752160  52.7278450   5.2658060
  68.3587730  54.2195890   5.4960620  55.7697760  49.2805530  12.1110180
  55.9328800  48.8110890  11.2929550  56.2350210  48.7729090  12.7759020
  60.5416530  38.4111290   7.1470750  60.0984680  39.1920830   6.8155270
  61.1001520  38.7341180   7.8541690  64.8286340  41.2779810  12.7506070
  64.3665710  41.4862830  13.5626010  64.4264450  40.4639160  12.4476740
  69.8290850  42.4988760  13.8802730  68.9784440  42.1994510  14.2011800
  69.6692640  42.7430770  12.9686550  66.9240560  43.9990510  15.9801520
  67.2493970  43.1654260  15.6403750  67.7120890  44.5219030  16.1279850
  62.5792430  38.9558620   9.0060350  62.8764760  39.8621450   8.9252370
  63.1277990  38.4677400   8.3919920  60.3330750  43.5344860   4.8752000
  60.1071670  43.3182030   5.7798620  59.5523280  43.9673320   4.5297970
  67.5628510  43.5408230   3.4742650  66.9637400  44.2644030   3.2906270
  68.1108120  43.4785010   2.6919100  62.7729960  44.4330440  15.5412270
  62.6773560  43.4925170  15.3912670  63.6161940  44.6545510  15.1460340
  66.1693380  42.1771770   5.5045930  66.5622950  42.4943970   4.6914620
  66.5310230  41.2983650   5.6190450  57.9040500  40.8444110  13.6946050
  57.5103890  41.6919320  13.9018830  57.2158900  40.2070480  13.8854690
  64.4785550  40.9279080  16.7642790  63.7883870  40.7351280  17.3988880
  65.2217850  41.2113720  17.2967090  55.2057550  38.7672570   7.7276130
  54.9170600  39.3375430   8.4401110  55.9503310  38.2877020   8.0907360
  66.7548520  44.7677520   9.5996710  66.0229640  45.2764330   9.9486810
  66.3572860  43.9507500   9.2985490  63.1925910  41.4431720   8.0049200
  63.1961970  41.0021670   7.1553740  64.0877030  41.7649050   8.1121020
  59.0428290  41.3258210   6.9643410  58.7028340  41.8033440   7.7210460
  58.2805610  40.8723330   6.6044510  67.2174430  40.2211200   9.0119650
  67.2347170  40.6719850   9.8561500  66.9690010  39.3216840   9.2253090
  70.6445180  37.6343380  14.8506030  70.9690950  36.9033040  15.3764010
  70.6801690  37.3157020  13.9487020  57.3436740  48.6556960  14.2705990
  56.9591530  48.0150630  14.8688950  57.6548930  49.3593080  14.8400720
  63.4933880  45.5033500   9.7514610  63.8604010  45.0292070  10.4975950
  63.3038940  46.3775070  10.0922950  56.3574370  40.2477190   5.8808080
  56.0721290  39.8832860   6.7186700  56.2953230  39.5157650   5.2671220
  61.2833250  44.5442140  12.0698820  60.9790320  45.4234120  12.2949180
  62.2379710  44.6041930  12.1056260  59.8115040  48.7503130   2.6665670
  59.0377300  48.2100750   2.5064390  60.5409670  48.2309740   2.3283430
  66.0312960  39.1406450   2.6021450  65.2177570  38.6419620   2.5266760
  65.8374910  39.9804700   2.1857800  65.9521820  47.8177550  14.3461060
  65.8859130  46.8973220  14.0918650  65.3226960  47.9152990  15.0605700
  59.8552440  48.4183510   6.3044480  60.3731110  47.6151770   6.2501370
  59.4036460  48.3562650   7.1461310  57.3396980  45.3844880  13.2170180
  56.9811920  46.0498730  13.8043520  57.0451540  44.5528430  13.5882800
  60.5410100  45.8429120  16.1009730  60.2410240  45.9886300  15.2037550
  61.3121340  45.2834410  16.0083120  65.8838550  50.6398120  14.0964860
  65.8983090  49.7079080  13.8783770  65.1763650  50.7257880  14.7354630
  67.6249350  49.0065630   6.9417290  67.9773170  48.4093760   6.2818660
  66.7411680  48.6809860   7.1125540  63.7112630  49.7663320   4.3487700
  64.3983760  50.3132530   4.7295290  62.9245050  50.3104050   4.3837310
  63.0139840  46.7709350   3.9613060  63.4702620  47.5814600   4.1873250
  62.6628050  46.4532490   4.7931550  65.3172450  52.2815690  11.1905360
  65.9614670  52.4875070  11.8678780  65.6801890  51.5204090  10.7376210
  58.9151620  37.1147000   4.4335580  58.7866250  37.1064900   5.3820500
  58.0913640  37.4530090   4.0826590  66.5904530  50.2848040   9.9082810
  67.2326760  49.5841200  10.0214980  67.1153880  51.0646480   9.7279700
  68.3642150  51.0842940  13.1118870  68.6998390  51.6709630  13.7896790
  67.4442490  50.9535650  13.3416660  55.9145550  38.8738120  13.8942280
  55.2004070  39.0735040  14.4994890  56.3340590  38.0977690  14.2657080
  56.2018140  52.8618380  14.8808810  56.3109260  51.9213120  14.7404200
  55.5498700  53.1273130  14.2322540  64.1930730  51.1334270  16.2806930
  63.8727600  50.4143510  16.8252620  63.5189090  51.8089340  16.3542990
  67.4084330  41.3660430  11.6443730  67.7765150  40.5455640  11.9723300
  66.5482530  41.4262320  12.0599380  70.7746360  40.3217370   2.4531290
  70.1459520  40.4263040   1.7389520  70.2798280  40.5414150   3.2425170
  62.7430390  42.6003320   3.8689170  62.0346540  43.0689660   4.3102780
  63.0274870  41.9425330   4.5034360  64.3686320  44.0200020  11.8681700
  64.8671570  44.4945840  12.5333550  64.5109270  43.0963540  12.0751730
  66.7745820  39.3253980   5.3084960  66.6513600  39.3440110   4.3594470
  67.7230380  39.3732920   5.4283360  63.8622610  54.5609280   4.5812940
  64.1164110  54.5230670   3.6592310  62.9135090  54.4342610   4.5741190
  69.8675190  45.4801160   6.1571450  68.9265330  45.4951390   6.3319140
  70.1819260  44.6937120   6.6031750  59.3418300  54.7441220   7.5042840
  60.0780780  54.1956680   7.7751410  59.7259220  55.6097230   7.3648830
  56.2263780  50.8114790   3.3784350  55.3003560  51.0535930   3.3689760
  56.6920210  51.6389050   3.2569100  58.3476580  53.9287290  16.6928420
  59.1489310  54.2499340  17.1063820  57.8328400  53.5682870  17.4148330
  67.1841210  50.0367160  16.6403830  66.5779370  50.0598760  15.8999580
  66.8795320  49.3050200  17.1771080  68.6141580  53.7647450  15.2513240
  69.5663330  53.6805470  15.2013480  68.4669800  54.4289160  15.9247030
  56.0674390  46.4160750  15.6364470  56.5713410  45.8368030  16.2080700
  55.3281810  46.7000980  16.1740840  63.1212330  47.8231740  15.1699990
  62.3558000  48.3916740  15.0854660  63.3028290  47.5307950  14.2768220
  70.2635680  49.5537070  15.7275010  71.0045150  49.8912830  15.2242470
  69.5008360  49.7229130  15.1744780  58.0997470  44.5590340  16.5314540
  58.1402810  44.2604210  17.4399770  58.9542970  44.9597950  16.3722060
  60.0403280  43.1382440  14.4989030  59.5099740  42.6473390  13.8712370
  60.7091350  43.5666640  13.9646960  68.9381340  47.6051900  14.2630220
  69.3522360  47.7596980  15.1120640  68.0032340  47.7307120  14.4256000
  69.4103510  44.9448060  16.2669370  69.9924280  44.1900380  16.1789850
  69.5865280  45.4755500  15.4900850  60.5275580  40.1044810  14.5786320
  60.4332450  39.4865560  13.8537190  59.9472970  40.8311100  14.3516230
  63.2937020  38.6618050  11.6113710  62.8454320  38.6842310  10.7659260
  62.6602220  38.2637070  12.2084010  63.6996570  47.5572380  12.2326150
  64.1184680  48.4005110  12.0602390  62.7805200  47.6944420  12.0032930
  66.0360470  45.2888560  13.6163990  66.1556680  44.6929700  14.3558830
  66.8954470  45.3258250  13.1965290  68.3748370  45.8425750  12.1926500
  67.8483590  46.3668370  11.5891640  68.7179710  46.4753140  12.8236230
  61.5503990  53.8625390  13.3483880  61.0125080  54.5871450  13.0292580
  61.8037950  53.3855730  12.5581220  62.8029240  41.8309910  14.8739810
  63.3928930  41.5225760  15.5617630  61.9849480  41.3589660  15.0299710
  67.6222670  41.4475720  15.1072830  66.9338190  40.7857260  15.0422820
  68.3428690  41.0013990  15.5521290  64.4066200  55.0976600  13.6070530
  64.3324900  56.0011740  13.9142900  63.5045040  54.7788500  13.5792600
  55.8093490  52.4251190   6.9104150  56.1396500  51.5572250   6.6782790
  56.2384490  52.6309710   7.7409110  60.4055410  50.7560200   4.5706120
  60.1050950  50.6325170   5.4710030  60.2992900  49.8968790   4.1621850
  56.2983700  53.2921780   9.6485780  55.8614690  53.4722580  10.4809930
  56.8661380  54.0496400   9.5067500  56.1308130  45.8042010   6.0074660
  55.4756970  45.5353650   5.3634360  56.9686080  45.6946490   5.5576640
  57.1684060  46.1894580  10.5478000  57.5357100  46.1021980  11.4274020
  56.5994880  45.4261130  10.4484860  56.7200060  43.1003670  14.4536420
  55.8256110  43.0670430  14.7930130  57.2597610  43.2990460  15.2187670
  57.2239770  37.3752000   8.8019640  57.8715960  36.8249380   8.3614800
  57.6441610  37.6295150   9.6235450  56.9771770  37.5307670  11.5444960
  56.6286590  37.9871490  12.3103140  56.6459470  36.6364800  11.6267390
  58.5836140  50.7027270  15.7098150  58.5405770  50.3320180  16.5912610
  58.7147150  51.6404840  15.8499970  62.2842170  52.2586860  11.3107870
  62.0433530  52.5261420  10.4238390  63.2244810  52.4292590  11.3658730
  64.4896590  38.7219550  15.0664380  64.4285480  39.3141380  15.8159790
  65.4296970  38.6145510  14.9214640  67.1271150  38.3789610  14.7056670
  67.7411560  38.6968900  14.0437750  67.6720710  37.8938200  15.3252530
  57.6492410  37.0583870  14.8195730  58.1975400  36.8771920  14.0561840
  57.7147720  36.2677980  15.3552040  58.4224170  53.6489520  12.8295930
  57.8284490  53.5174220  13.5685970  58.4148010  52.8127660  12.3638030
  67.8679190  36.9421750  11.0325960  66.9939030  37.2756860  10.8298890
  67.7589940  36.4694930  11.8577830  68.7751170  39.1492620  12.4167680
  68.4464530  38.3344380  12.0369410  69.7233470  39.1062430  12.2933370
  58.0536400  51.0147900  11.7803970  57.3270460  50.3953190  11.7129920
  58.1145550  51.4088510  10.9102050  61.6581500  53.2292900   8.5653380
  62.1746520  52.6180260   8.0401640  62.3078880  53.7321680   9.0564390
  64.3977000  54.1201390   9.3922360  64.6854810  53.8655690   8.5155370
  64.9100220  53.5678750   9.9827930  65.6154010  37.8591590   9.9718870
  64.8325800  38.3337090  10.2515630  65.3216940  36.9546420   9.8632050
  70.1675080  38.5614690   8.0167960  70.6083170  38.5059790   7.1689560
  69.8982670  39.4772700   8.0878140  56.3366400  54.3322290   4.9900730
  56.1688440  53.6992970   5.6882620  55.4700910  54.5381690   4.6394920
  56.9594420  38.1639070   2.4932590  57.7173780  38.2767950   1.9196620
  56.4971590  39.0008270   2.4476020  63.5008230  40.2778340   5.4834900
  62.6882740  39.9035230   5.1430780  64.0049870  39.5223420   5.7856090
  68.0033210  36.9420790   6.7217970  68.6062580  37.5141000   7.1966490
  67.2626200  37.5060230   6.4991870  57.9429100  53.0255520   2.4350870
  57.4176720  53.4063550   1.7312830  57.8673680  53.6506290   3.1560580
  61.5257410  38.4278260   4.0879950  60.8960150  37.7265570   4.2550080
  60.9862550  39.1882390   3.8713110  64.4649360  55.0417490  16.7590560
  65.3916670  54.8061760  16.8026520  64.4499790  55.8689490  16.2776590
  61.6512970  37.7062240  16.5232440  61.3697240  38.2095840  15.7593260
  62.0332670  36.9083990  16.1574570  68.2528430  37.1215820  17.1012910
  68.1393880  37.4410430  17.9964430  69.0698170  37.5228330  16.8050190
  67.1586580  26.3664800  62.5621610  67.0780630  25.4519410  62.2913320
  66.7451000  26.8631870  61.8561320  65.2904620  28.1443820  64.4430880
  64.5146720  27.6644260  64.7329450  65.9417550  27.4649470  64.2687040
  59.3070450  28.4563630  65.3206640  58.4755330  28.2012340  65.7203150
  59.9151430  28.5274400  66.0564560  69.3112050  32.5504010  63.2230010
  68.8493580  31.7791250  63.5517180  70.1237600  32.5770080  63.7282460
  59.2871710  32.4903720  65.5164660  59.5899750  31.6001460  65.3374880
  60.0315300  33.0473940  65.2886910  57.7162400  23.4165520  59.1049030
  56.8279100  23.7581490  59.0028910  58.0003590  23.2165840  58.2129860
  55.6795410  26.0171170  64.9888730  56.2511520  25.2493370  64.9892370
  55.6796950  26.3159930  64.0795340  65.5375360  34.8362020  62.8434000
  64.9186800  35.2919520  62.2728440  66.3927140  34.9913480  62.4423700
  64.7313610  30.8201010  64.4501040  64.6621890  29.8790950  64.2890170
  65.4933470  30.9102420  65.0223610  56.9220280  21.4255530  66.7757660
  56.7423120  20.5281280  67.0560420  56.5200360  21.9727400  67.4504610
  65.7618780  23.6271390  64.6769970  66.1383600  22.7543270  64.5643640
  65.6638290  23.9630090  63.7860410  59.8923790  21.9997020  60.1387410
  59.9990540  22.9000750  60.4456170  58.9816150  21.9514990  59.8482060
  69.5442900  21.1221830  61.6098310  70.3652520  20.6318400  61.6523790
  69.5776980  21.7119490  62.3630150  57.5406950  23.9216030  65.3840000
  58.2217060  24.1854400  66.0027400  57.2255000  23.0816900  65.7178010
  61.7331520  24.9683390  64.4712590  62.2409740  25.4664360  65.1117610
  62.2644760  24.1918590  64.2951950  60.0167620  19.6081950  68.7376010
  60.0186060  20.1254340  67.9321910  59.1871930  19.1312130  68.7145940
  66.4038710  29.7201260  60.2365910  65.7855980  30.1850710  59.6728630
  66.9161960  30.4128740  60.6535420  61.2670470  29.2477130  66.9149510
  60.9339850  29.8746050  67.5570580  61.4437150  29.7739010  66.1351180
  69.7804380  23.0622210  64.3825850  69.0759950  23.3507100  64.9628960
  70.1416540  23.8722320  64.0225410  59.6982950  21.3191910  66.7446460
  60.0399760  22.1633960  66.4500330  58.7598760  21.4675650  66.8611800
  60.4789570  31.2157930  68.7298690  61.0963570  31.8909010  68.4483140
  59.6182690  31.6245910  68.6386190  55.7721910  30.4057790  57.6105540
  55.3949890  30.8944890  56.8790440  56.0294980  31.0783070  58.2412070
  63.3810840  18.8074180  63.0691050  63.6885820  18.2521070  62.3526550
  62.4511540  18.9418640  62.8864040  68.9325900  34.5241470  65.3598510
  68.9453060  34.1203760  64.4920770  68.3801120  35.2988760  65.2559940
  70.2271320  31.2457690  60.4488680  70.1167650  30.3032020  60.5738100
  70.2239570  31.6073330  61.3351440  68.3311340  29.4271310  66.6881120
  68.7480130  29.2131420  65.8534580  69.0551160  29.6844100  67.2589740
  65.7691600  26.8723010  59.8051170  64.8420880  26.8060390  60.0339640
  65.9216420  27.8103140  59.6906410  65.7560680  23.1440010  56.8018330
  64.8164350  23.3053970  56.8870790  66.0743940  23.8625690  56.2554320
  69.7988890  28.4343310  60.3086420  69.1801310  28.0962860  59.6612720
  69.7813340  27.7903070  61.0165610  69.2415450  24.6127850  67.7252230
  68.8286630  25.4381560  67.9792220  68.5091400  24.0272890  67.5328590
  61.3748240  27.3987750  62.5870900  60.9705240  26.6865000  62.0916800
  61.4611360  27.0540990  63.4758940  61.8429940  31.0855310  64.7510110
  61.5458230  30.4800780  64.0717890  62.7929760  31.1232620  64.6399470
  60.0876860  24.1730960  66.3669940  60.6391450  24.2826300  65.5923190
  60.6020370  24.5468560  67.0825170  69.9315550  34.6587180  68.4133210
  69.4546110  35.4659370  68.2205820  69.2477340  34.0065510  68.5659420
  67.9753590  27.6730120  57.3159170  68.4146870  26.8352550  57.1696990
  68.6882010  28.3059520  57.4023310  66.0848970  32.6126190  61.2840410
  66.5244880  33.3550520  60.8695800  66.0235860  32.8552760  62.2079370
  58.0752870  26.2932730  60.0877550  57.9550470  27.0194820  59.4758820
  57.7653760  25.5235640  59.6105460  55.7138240  29.4647870  65.8946190
  55.7918660  29.5996640  64.9501910  56.3279920  28.7563760  66.0874310
  56.9585870  31.1648060  62.3052370  56.5513950  31.3062650  61.4505970
  57.8498880  30.8808220  62.1023580  66.7764750  35.3139970  69.2119420
  67.2909420  35.2247980  70.0141850  65.9333830  35.6599670  69.5047330
  68.7519150  35.5995310  58.6403420  68.5920290  35.3098250  59.5385250
  68.5865860  34.8235440  58.1048650  61.2307530  35.3793840  60.4175040
  61.0550010  34.4629380  60.2042840  60.3763270  35.7381130  60.6572840
  68.4545280  33.1082870  57.2001420  67.7610440  33.1060160  56.5403700
  69.1968140  32.6842190  56.7695590  68.0195210  34.7345580  61.2749910
  68.4752160  33.9534960  61.5888530  68.3587730  35.4452400  61.8191090
  55.7697760  30.5062040  68.4340650  55.9328800  30.0367400  67.6160020
  56.2350210  29.9985600  69.0989490  60.5416530  19.6367800  63.4701220
  60.0984680  20.4177340  63.1385740  61.1001520  19.9597690  64.1772160
  64.8286340  22.5036320  69.0736540  64.3665710  22.7119340  69.8856480
  64.4264450  21.6895670  68.7707210  63.6575350  19.2578500  58.3507050
  63.0329530  19.2538370  59.0760360  63.5705470  18.3909460  57.9543020
  62.5792430  20.1815130  65.3290820  62.8764760  21.0877960  65.2482840
  63.1277990  19.6933910  64.7150390  60.3330750  24.7601370  61.1982470
  60.1071670  24.5438540  62.1029090  59.5523280  25.1929830  60.8528440
  67.5628510  24.7664740  59.7973120  66.9637400  25.4900540  59.6136740
  68.1108120  24.7041520  59.0149570  66.1693380  23.4028280  61.8276400
  66.5622950  23.7200480  61.0145090  66.5310230  22.5240160  61.9420920
  57.9040500  22.0700620  70.0176520  57.5103890  22.9175830  70.2249300
  57.2158900  21.4326990  70.2085160  55.2057550  19.9929080  64.0506600
  54.9170600  20.5631940  64.7631580  55.9503310  19.5133530  64.4137830
  55.3927780  23.9349200  55.2609320  55.3102450  24.8779960  55.4024310
  55.0410840  23.7924110  54.3821670  66.7548520  25.9934030  65.9227180
  66.0229640  26.5020840  66.2717280  66.3572860  25.1764010  65.6215960
  63.1925910  22.6688230  64.3279670  63.1961970  22.2278180  63.4784210
  64.0877030  22.9905560  64.4351490  59.0428290  22.5514720  63.2873880
  58.7028340  23.0289950  64.0440930  58.2805610  22.0979840  62.9274980
  63.2546060  23.6700310  57.3186430  63.3758880  23.6286790  58.2672250
  62.8694570  24.5324460  57.1633160  67.2174430  21.4467710  65.3350120
  67.2347170  21.8976360  66.1791970  66.9690010  20.5473350  65.5483560
  62.2667560  25.9801450  56.7169730  61.6984460  25.5319700  56.0905640
  62.9756560  26.3394230  56.1834880  63.4933880  26.7290010  66.0745080
  63.8604010  26.2548580  66.8206420  63.3038940  27.6031580  66.4153420
  56.3574370  21.4733700  62.2038550  56.0721290  21.1089370  63.0417170
  56.2953230  20.7414160  61.5901690  61.2833250  25.7698650  68.3929290
  60.9790320  26.6490630  68.6179650  62.2379710  25.8298440  68.4286730
  59.8115040  29.9759640  58.9896140  59.0377300  29.4357260  58.8294860
  60.5409670  29.4566250  58.6513900  66.0312960  20.3662960  58.9251920
  65.2177570  19.8676130  58.8497230  65.8374910  21.2061210  58.5088270
  68.7461350  24.7382610  57.2214080  69.6340970  25.0499840  57.0465420
  68.7166440  23.8654860  56.8294660  59.8552440  29.6440020  62.6274950
  60.3731110  28.8408280  62.5731840  59.4036460  29.5819160  63.4691780
  64.7421940  30.9106300  57.9002250  65.0837640  31.6548530  57.4045570
  63.9134650  31.2237420  58.2627080  57.3396980  26.6101390  69.5400650
  56.9811920  27.2755240  70.1273990  57.0451540  25.7784940  69.9113270
  67.6249350  30.2322140  63.2647760  67.9773170  29.6350270  62.6049130
  66.7411680  29.9066370  63.4356010  63.7112630  30.9919830  60.6718170
  64.3983760  31.5389040  61.0525760  62.9245050  31.5360560  60.7067780
  55.8505030  26.6092650  56.1635250  56.7199880  26.8917450  56.4471170
  55.3595350  27.4228520  56.0484060  63.0139840  27.9965860  60.2843530
  63.4702620  28.8071110  60.5103720  62.6628050  27.6789000  61.1162020
  65.3172450  33.5072200  67.5135830  65.9614670  33.7131580  68.1909250
  65.6801890  32.7460600  67.0606680  58.9151620  18.3403510  60.7566050
  58.7866250  18.3321410  61.7050970  58.0913640  18.6786600  60.4057060
  66.5904530  31.5104550  66.2313280  67.2326760  30.8097710  66.3445450
  67.1153880  32.2902990  66.0510170  70.4360250  31.7953170  55.9552420
  70.2097830  31.0783610  56.5477060  70.0456450  31.5465610  55.1174170
  68.3642150  32.3099450  69.4349340  68.6998390  32.8966140  70.1127260
  67.4442490  32.1792160  69.6647130  56.2176280  35.8220030  56.7296880
  56.5773920  36.4209370  56.0754150  56.0768620  36.3679920  57.5031910
  70.0176500  29.7125110  57.6166580  69.7298200  30.1737800  58.4044460
  70.8128670  29.2522880  57.8850800  62.2344900  33.2051230  57.5470550
  62.2255000  33.9380920  56.9315060  61.3143260  32.9582810  57.6397510
  57.8351540  28.4266120  58.2917310  57.2279490  29.1665020  58.3012610
  58.3100890  28.5165480  57.4655510  67.4084330  22.5916940  67.9674200
  67.7765150  21.7712150  68.2953770  66.5482530  22.6518830  68.3829850
  70.7746360  21.5473880  58.7761760  70.1459520  21.6519550  58.0619990
  70.2798280  21.7670660  59.5655640  65.2204500  33.2679470  56.2095740
  65.3216480  33.0643460  55.2797720  64.3206240  33.0137750  56.4143520
  62.7430390  23.8259830  60.1919640  62.0346540  24.2946170  60.6333250
  63.0274870  23.1681840  60.8264830  64.3686320  25.2456530  68.1912170
  64.8671570  25.7202350  68.8564020  64.5109270  24.3220050  68.3982200
  66.7745820  20.5510490  61.6315430  66.6513600  20.5696620  60.6824940
  67.7230380  20.5989430  61.7513830  63.8622610  35.7865790  60.9043410
  64.1164110  35.7487180  59.9822780  62.9135090  35.6599120  60.8971660
  60.9465410  22.1344910  57.5670350  61.7955940  22.5715060  57.5010540
  60.5796680  22.4465170  58.3942410  69.8675190  26.7057670  62.4801920
  68.9265330  26.7207900  62.6549610  70.1819260  25.9193630  62.9262220
  59.8456830  28.3877270  56.0405880  60.6120100  28.2758630  56.6031310
  59.9231520  27.6915240  55.3882650  58.5403590  25.8202340  56.7238770
  58.6207180  24.8729850  56.8356170  59.4323340  26.1509220  56.8299430
  59.3418300  35.9697730  63.8273310  60.0780780  35.4213190  64.0981880
  59.7259220  36.8353740  63.6879300  56.2263780  32.0371300  59.7014820
  55.3003560  32.2792440  59.6920230  56.6920210  32.8645560  59.5799570
  62.4520610  35.1428040  55.6498880  63.2449220  35.4316870  55.1980670
  61.9324960  34.7120210  54.9711360  62.9698010  30.3631450  55.5141230
  62.8648650  29.7483800  56.2402610  62.8022230  29.8397340  54.7304240
  66.2100740  29.4251480  56.1183220  65.6610840  29.8720780  56.7625960
  66.8320000  28.9200730  56.6420890  61.8775860  28.3842400  58.0148520
  62.2992280  28.2182270  58.8579910  62.0026700  27.5742630  57.5203660
  64.3903500  27.4080010  55.2625620  64.9109160  26.6929030  54.8966770
  65.0371900  28.0465880  55.5626130  63.2937020  19.8874560  67.9344180
  62.8454320  19.9098820  67.0889730  62.6602220  19.4893580  68.5314480
  63.6996570  28.7828890  68.5556620  64.1184680  29.6261620  68.3832860
  62.7805200  28.9200930  68.3263400  68.3748370  27.0682260  68.5156970
  67.8483590  27.5924880  67.9122110  68.7179710  27.7009650  69.1466700
  60.7734760  24.4575630  54.9606680  60.5723820  23.5942990  55.3220020
  60.6026810  24.3708990  54.0228280  61.5503990  35.0881900  69.6714350
  61.0125080  35.8127960  69.3523050  61.8037950  34.6112240  68.8811690
  68.2523070  19.2683860  57.4893560  68.5325360  18.4251760  57.8452980
  67.4788800  19.5006970  58.0032310  59.5717560  21.5576250  54.9484560
  59.8743460  21.5643680  54.0403710  60.3112150  21.2074110  55.4452220
  64.4066200  36.3233110  69.9301000  64.3324900  37.2268250  70.2373370
  63.5045040  36.0045010  69.9023070  62.7902490  20.5010870  55.9340760
  62.4424490  19.8234860  55.3543210  62.9915260  20.0400380  56.7484150
  64.9551530  35.4891620  57.5527360  65.8502320  35.8276590  57.5746120
  64.9869160  34.7671030  56.9251640  58.5947690  30.8618670  55.7814360
  59.0322560  31.4048340  56.4371940  59.0795420  30.0365620  55.7910700
  55.8093490  33.6507700  63.2334620  56.1396500  32.7828760  63.0013260
  56.2384490  33.8566220  64.0639580  60.4055410  31.9816710  60.8936590
  60.1050950  31.8581680  61.7940500  60.2992900  31.1225300  60.4852320
  56.2983700  34.5178290  65.9716250  55.8614690  34.6979090  66.8040400
  56.8661380  35.2752910  65.8297970  56.1308130  27.0298520  62.3305130
  55.4756970  26.7610160  61.6864830  56.9686080  26.9203000  61.8807110
  69.0798570  21.8239810  56.5523620  69.4983450  21.6370790  55.7120280
  68.7734630  20.9718860  56.8626550  57.1684060  27.4151090  66.8708470
  57.5357100  27.3278490  67.7504490  56.5994880  26.6517640  66.7715330
  55.3446210  24.2397450  58.2730460  54.4410290  24.5027650  58.0982120
  55.8286830  24.5108620  57.4930420  57.8873420  23.2962990  56.1824840
  58.5965120  22.8746210  55.6972120  57.1713360  23.3638220  55.5508190
  57.5347580  19.3502320  55.2227490  58.2575710  19.8911260  55.5408710
  57.8072100  19.0765740  54.3469030  57.2239770  18.6008510  65.1250110
  57.8715960  18.0505890  64.6845270  57.6441610  18.8551660  65.9465920
  56.9771770  18.7564180  67.8675430  56.6286590  19.2128000  68.6333610
  56.6459470  17.8621310  67.9497860  62.2842170  33.4843370  67.6338340
  62.0433530  33.7517930  66.7468860  63.2244810  33.6549100  67.6889200
  58.4224170  34.8746030  69.1526400  57.8284490  34.7430730  69.8916440
  58.4148010  34.0384170  68.6868500  67.8679190  18.1678260  67.3556430
  66.9939030  18.5013370  67.1529360  67.7589940  17.6951440  68.1808300
  68.7751170  20.3749130  68.7398150  68.4464530  19.5600890  68.3599880
  69.7233470  20.3318940  68.6163840  58.0536400  32.2404410  68.1034440
  57.3270460  31.6209700  68.0360390  58.1145550  32.6345020  67.2332520
  61.6581500  34.4549410  64.8883850  62.1746520  33.8436770  64.3632110
  62.3078880  34.9578190  65.3794860  64.3977000  35.3457900  65.7152830
  64.6854810  35.0912200  64.8385840  64.9100220  34.7935260  66.3058400
  65.6154010  19.0848100  66.2949340  64.8325800  19.5593600  66.5746100
  65.3216940  18.1802930  66.1862520  70.1675080  19.7871200  64.3398430
  70.6083170  19.7316300  63.4920030  69.8982670  20.7029210  64.4108610
  56.3366400  35.5578800  61.3131200  56.1688440  34.9249480  62.0113090
  55.4700910  35.7638200  60.9625390  56.9594420  19.3895580  58.8163060
  57.7173780  19.5024460  58.2427090  56.4971590  20.2264780  58.7706490
  63.5008230  21.5034850  61.8065370  62.6882740  21.1291740  61.4661250
  64.0049870  20.7479930  62.1086560  68.0033210  18.1677300  63.0448440
  68.6062580  18.7397510  63.5196960  67.2626200  18.7316740  62.8222340
  57.9429100  34.2512030  58.7581340  57.4176720  34.6320060  58.0543300
  57.8673680  34.8762800  59.4791050  59.3319570  19.9159630  57.3565030
  59.8612330  19.1289430  57.2272980  59.9647890  20.5950820  57.5900560
  61.5257410  19.6534770  60.4110420  60.8960150  18.9522080  60.5780550
  60.9862550  20.4138900  60.1943580  60.5422070  36.1994410  57.6330590
  61.2740890  35.9153690  57.0854480  60.8015740  35.9607690  58.5229970
  59.7036860  32.3159140  57.6376920  59.0745740  32.7844240  58.1862750
  59.8184690  31.4708360  58.0723110  67.1586580  26.3664800  43.7878120
  67.0780630  25.4519410  43.5169830  66.7451000  26.8631870  43.0817830
  65.2904620  28.1443820  45.6687390  64.5146720  27.6644260  45.9585960
  65.9417550  27.4649470  45.4943550  59.3070450  28.4563630  46.5463150
  58.4755330  28.2012340  46.9459660  59.9151430  28.5274400  47.2821070
  69.3112050  32.5504010  44.4486520  68.8493580  31.7791250  44.7773690
  70.1237600  32.5770080  44.9538970  59.2871710  32.4903720  46.7421170
  59.5899750  31.6001460  46.5631390  60.0315300  33.0473940  46.5143420
  57.7162400  23.4165520  40.3305540  56.8279100  23.7581490  40.2285420
  58.0003590  23.2165840  39.4386370  55.6795410  26.0171170  46.2145240
  56.2511520  25.2493370  46.2148880  55.6796950  26.3159930  45.3051850
  65.5375360  34.8362020  44.0690510  64.9186800  35.2919520  43.4984950
  66.3927140  34.9913480  43.6680210  64.7313610  30.8201010  45.6757550
  64.6621890  29.8790950  45.5146680  65.4933470  30.9102420  46.2480120
  56.9220280  21.4255530  48.0014170  56.7423120  20.5281280  48.2816930
  56.5200360  21.9727400  48.6761120  65.7618780  23.6271390  45.9026480
  66.1383600  22.7543270  45.7900150  65.6638290  23.9630090  45.0116920
  59.8923790  21.9997020  41.3643920  59.9990540  22.9000750  41.6712680
  58.9816150  21.9514990  41.0738570  69.5442900  21.1221830  42.8354820
  70.3652520  20.6318400  42.8780300  69.5776980  21.7119490  43.5886660
  57.5406950  23.9216030  46.6096510  58.2217060  24.1854400  47.2283910
  57.2255000  23.0816900  46.9434520  61.7331520  24.9683390  45.6969100
  62.2409740  25.4664360  46.3374120  62.2644760  24.1918590  45.5208460
  60.0167620  19.6081950  49.9632520  60.0186060  20.1254340  49.1578420
  59.1871930  19.1312130  49.9402450  66.4038710  29.7201260  41.4622420
  65.7855980  30.1850710  40.8985140  66.9161960  30.4128740  41.8791930
  61.2670470  29.2477130  48.1406020  60.9339850  29.8746050  48.7827090
  61.4437150  29.7739010  47.3607690  69.7804380  23.0622210  45.6082360
  69.0759950  23.3507100  46.1885470  70.1416540  23.8722320  45.2481920
  59.6982950  21.3191910  47.9702970  60.0399760  22.1633960  47.6756840
  58.7598760  21.4675650  48.0868310  60.4789570  31.2157930  49.9555200
  61.0963570  31.8909010  49.6739650  59.6182690  31.6245910  49.8642700
  55.7721910  30.4057790  38.8362050  55.3949890  30.8944890  38.1046950
  56.0294980  31.0783070  39.4668580  63.3810840  18.8074180  44.2947560
  63.6885820  18.2521070  43.5783060  62.4511540  18.9418640  44.1120550
  68.9325900  34.5241470  46.5855020  68.9453060  34.1203760  45.7177280
  68.3801120  35.2988760  46.4816450  70.2271320  31.2457690  41.6745190
  70.1167650  30.3032020  41.7994610  70.2239570  31.6073330  42.5607950
  68.3311340  29.4271310  47.9137630  68.7480130  29.2131420  47.0791090
  69.0551160  29.6844100  48.4846250  65.7691600  26.8723010  41.0307680
  64.8420880  26.8060390  41.2596150  65.9216420  27.8103140  40.9162920
  65.7560680  23.1440010  38.0274840  64.8164350  23.3053970  38.1127300
  66.0743940  23.8625690  37.4810830  69.7988890  28.4343310  41.5342930
  69.1801310  28.0962860  40.8869230  69.7813340  27.7903070  42.2422120
  69.2415450  24.6127850  48.9508740  68.8286630  25.4381560  49.2048730
  68.5091400  24.0272890  48.7585100  61.3748240  27.3987750  43.8127410
  60.9705240  26.6865000  43.3173310  61.4611360  27.0540990  44.7015450
  61.8429940  31.0855310  45.9766620  61.5458230  30.4800780  45.2974400
  62.7929760  31.1232620  45.8655980  60.0876860  24.1730960  47.5926450
  60.6391450  24.2826300  46.8179700  60.6020370  24.5468560  48.3081680
  69.9315550  34.6587180  49.6389720  69.4546110  35.4659370  49.4462330
  69.2477340  34.0065510  49.7915930  60.9348370  30.8237000  52.6274420
  60.0376900  31.0476970  52.8747820  60.9601240  30.9471940  51.6785820
  67.9753590  27.6730120  38.5415680  68.4146870  26.8352550  38.3953500
  68.6882010  28.3059520  38.6279820  59.7619590  27.6950320  51.2031790
  59.6227360  28.5673120  51.5719190  58.8800950  27.3523130  51.0579730
  66.0848970  32.6126190  42.5096920  66.5244880  33.3550520  42.0952310
  66.0235860  32.8552760  43.4335880  61.5599940  33.6372020  53.4116940
  61.5315370  34.0414970  52.5445370  61.3964910  32.7082380  53.2488540
  58.0752870  26.2932730  41.3134060  57.9550470  27.0194820  40.7015330
  57.7653760  25.5235640  40.8361970  55.7138240  29.4647870  47.1202700
  55.7918660  29.5996640  46.1758420  56.3279920  28.7563760  47.3130820
  56.9585870  31.1648060  43.5308880  56.5513950  31.3062650  42.6762480
  57.8498880  30.8808220  43.3280090  66.7764750  35.3139970  50.4375930
  67.2909420  35.2247980  51.2398360  65.9333830  35.6599670  50.7303840
  68.7519150  35.5995310  39.8659930  68.5920290  35.3098250  40.7641760
  68.5865860  34.8235440  39.3305160  61.2307530  35.3793840  41.6431550
  61.0550010  34.4629380  41.4299350  60.3763270  35.7381130  41.8829350
  68.4545280  33.1082870  38.4257930  67.7610440  33.1060160  37.7660210
  69.1968140  32.6842190  37.9952100  68.0195210  34.7345580  42.5006420
  68.4752160  33.9534960  42.8145040  68.3587730  35.4452400  43.0447600
  55.7697760  30.5062040  49.6597160  55.9328800  30.0367400  48.8416530
  56.2350210  29.9985600  50.3246000  60.5416530  19.6367800  44.6957730
  60.0984680  20.4177340  44.3642250  61.1001520  19.9597690  45.4028670
  64.8286340  22.5036320  50.2993050  64.3665710  22.7119340  51.1112990
  64.4264450  21.6895670  49.9963720  69.8290850  23.7245270  51.4289710
  68.9784440  23.4251020  51.7498780  69.6692640  23.9687280  50.5173530
  66.9240560  25.2247020  53.5288500  67.2493970  24.3910770  53.1890730
  67.7120890  25.7475540  53.6766830  63.6575350  19.2578500  39.5763560
  63.0329530  19.2538370  40.3016870  63.5705470  18.3909460  39.1799530
  62.5792430  20.1815130  46.5547330  62.8764760  21.0877960  46.4739350
  63.1277990  19.6933910  45.9406900  60.3330750  24.7601370  42.4238980
  60.1071670  24.5438540  43.3285600  59.5523280  25.1929830  42.0784950
  67.5628510  24.7664740  41.0229630  66.9637400  25.4900540  40.8393250
  68.1108120  24.7041520  40.2406080  62.7729960  25.6586950  53.0899250
  62.6773560  24.7181680  52.9399650  63.6161940  25.8802020  52.6947320
  66.1693380  23.4028280  43.0532910  66.5622950  23.7200480  42.2401600
  66.5310230  22.5240160  43.1677430  57.9040500  22.0700620  51.2433030
  57.5103890  22.9175830  51.4505810  57.2158900  21.4326990  51.4341670
  64.4785550  22.1535590  54.3129770  63.7883870  21.9607790  54.9475860
  65.2217850  22.4370230  54.8454070  55.2057550  19.9929080  45.2763110
  54.9170600  20.5631940  45.9888090  55.9503310  19.5133530  45.6394340
  55.3927780  23.9349200  36.4865830  55.3102450  24.8779960  36.6280820
  55.0410840  23.7924110  35.6078180  66.7548520  25.9934030  47.1483690
  66.0229640  26.5020840  47.4973790  66.3572860  25.1764010  46.8472470
  63.1925910  22.6688230  45.5536180  63.1961970  22.2278180  44.7040720
  64.0877030  22.9905560  45.6608000  59.0428290  22.5514720  44.5130390
  58.7028340  23.0289950  45.2697440  58.2805610  22.0979840  44.1531490
  63.2546060  23.6700310  38.5442940  63.3758880  23.6286790  39.4928760
  62.8694570  24.5324460  38.3889670  67.2174430  21.4467710  46.5606630
  67.2347170  21.8976360  47.4048480  66.9690010  20.5473350  46.7740070
  62.2667560  25.9801450  37.9426240  61.6984460  25.5319700  37.3162150
  62.9756560  26.3394230  37.4091390  70.6445180  18.8599890  52.3993010
  70.9690950  18.1289550  52.9250990  70.6801690  18.5413530  51.4974000
  57.3436740  29.8813470  51.8192970  56.9591530  29.2407140  52.4175930
  57.6548930  30.5849590  52.3887700  63.4933880  26.7290010  47.3001590
  63.8604010  26.2548580  48.0462930  63.3038940  27.6031580  47.6409930
  56.3574370  21.4733700  43.4295060  56.0721290  21.1089370  44.2673680
  56.2953230  20.7414160  42.8158200  61.2833250  25.7698650  49.6185800
  60.9790320  26.6490630  49.8436160  62.2379710  25.8298440  49.6543240
  59.8115040  29.9759640  40.2152650  59.0377300  29.4357260  40.0551370
  60.5409670  29.4566250  39.8770410  66.0312960  20.3662960  40.1508430
  65.2177570  19.8676130  40.0753740  65.8374910  21.2061210  39.7344780
  65.9521820  29.0434060  51.8948040  65.8859130  28.1229730  51.6405630
  65.3226960  29.1409500  52.6092680  68.7461350  24.7382610  38.4470590
  69.6340970  25.0499840  38.2721930  68.7166440  23.8654860  38.0551170
  59.8552440  29.6440020  43.8531460  60.3731110  28.8408280  43.7988350
  59.4036460  29.5819160  44.6948290  64.7421940  30.9106300  39.1258760
  65.0837640  31.6548530  38.6302080  63.9134650  31.2237420  39.4883590
  57.3396980  26.6101390  50.7657160  56.9811920  27.2755240  51.3530500
  57.0451540  25.7784940  51.1369780  60.5410100  27.0685630  53.6496710
  60.2410240  27.2142810  52.7524530  61.3121340  26.5090920  53.5570100
  65.8838550  31.8654630  51.6451840  65.8983090  30.9335590  51.4270750
  65.1763650  31.9514390  52.2841610  67.6249350  30.2322140  44.4904270
  67.9773170  29.6350270  43.8305640  66.7411680  29.9066370  44.6612520
  63.7112630  30.9919830  41.8974680  64.3983760  31.5389040  42.2782270
  62.9245050  31.5360560  41.9324290  55.8505030  26.6092650  37.3891760
  56.7199880  26.8917450  37.6727680  55.3595350  27.4228520  37.2740570
  63.0139840  27.9965860  41.5100040  63.4702620  28.8071110  41.7360230
  62.6628050  27.6789000  42.3418530  65.3172450  33.5072200  48.7392340
  65.9614670  33.7131580  49.4165760  65.6801890  32.7460600  48.2863190
  58.9151620  18.3403510  41.9822560  58.7866250  18.3321410  42.9307480
  58.0913640  18.6786600  41.6313570  66.5904530  31.5104550  47.4569790
  67.2326760  30.8097710  47.5701960  67.1153880  32.2902990  47.2766680
  70.4360250  31.7953170  37.1808930  70.2097830  31.0783610  37.7733570
  70.0456450  31.5465610  36.3430680  68.3642150  32.3099450  50.6605850
  68.6998390  32.8966140  51.3383770  67.4442490  32.1792160  50.8903640
  56.2176280  35.8220030  37.9553390  56.5773920  36.4209370  37.3010660
  56.0768620  36.3679920  38.7288420  55.9145550  20.0994630  51.4429260
  55.2004070  20.2991550  52.0481870  56.3340590  19.3234200  51.8144060
  70.0176500  29.7125110  38.8423090  69.7298200  30.1737800  39.6300970
  70.8128670  29.2522880  39.1107310  56.2018140  34.0874890  52.4295790
  56.3109260  33.1469630  52.2891180  55.5498700  34.3529640  51.7809520
  64.1930730  32.3590780  53.8293910  63.8727600  31.6400020  54.3739600
  63.5189090  33.0345850  53.9029970  62.2344900  33.2051230  38.7727060
  62.2255000  33.9380920  38.1571570  61.3143260  32.9582810  38.8654020
  57.8351540  28.4266120  39.5173820  57.2279490  29.1665020  39.5269120
  58.3100890  28.5165480  38.6912020  67.4084330  22.5916940  49.1930710
  67.7765150  21.7712150  49.5210280  66.5482530  22.6518830  49.6086360
  70.7746360  21.5473880  40.0018270  70.1459520  21.6519550  39.2876500
  70.2798280  21.7670660  40.7912150  65.2204500  33.2679470  37.4352250
  65.3216480  33.0643460  36.5054230  64.3206240  33.0137750  37.6400030
  62.7430390  23.8259830  41.4176150  62.0346540  24.2946170  41.8589760
  63.0274870  23.1681840  42.0521340  64.3686320  25.2456530  49.4168680
  64.8671570  25.7202350  50.0820530  64.5109270  24.3220050  49.6238710
  66.7745820  20.5510490  42.8571940  66.6513600  20.5696620  41.9081450
  67.7230380  20.5989430  42.9770340  63.8622610  35.7865790  42.1299920
  64.1164110  35.7487180  41.2079290  62.9135090  35.6599120  42.1228170
  60.9465410  22.1344910  38.7926860  61.7955940  22.5715060  38.7267050
  60.5796680  22.4465170  39.6198920  69.8675190  26.7057670  43.7058430
  68.9265330  26.7207900  43.8806120  70.1819260  25.9193630  44.1518730
  59.8456830  28.3877270  37.2662390  60.6120100  28.2758630  37.8287820
  59.9231520  27.6915240  36.6139160  58.5403590  25.8202340  37.9495280
  58.6207180  24.8729850  38.0612680  59.4323340  26.1509220  38.0555940
  59.3418300  35.9697730  45.0529820  60.0780780  35.4213190  45.3238390
  59.7259220  36.8353740  44.9135810  56.2263780  32.0371300  40.9271330
  55.3003560  32.2792440  40.9176740  56.6920210  32.8645560  40.8056080
  58.3476580  35.1543800  54.2415400  59.1489310  35.4755850  54.6550800
  57.8328400  34.7939380  54.9635310  62.4520610  35.1428040  36.8755390
  63.2449220  35.4316870  36.4237180  61.9324960  34.7120210  36.1967870
  67.1841210  31.2623670  54.1890810  66.5779370  31.2855270  53.4486560
  66.8795320  30.5306710  54.7258060  68.6141580  34.9903960  52.8000220
  69.5663330  34.9061980  52.7500460  68.4669800  35.6545670  53.4734010
  56.0674390  27.6417260  53.1851450  56.5713410  27.0624540  53.7567680
  55.3281810  27.9257490  53.7227820  62.9698010  30.3631450  36.7397740
  62.8648650  29.7483800  37.4659120  62.8022230  29.8397340  35.9560750
  63.1212330  29.0488250  52.7186970  62.3558000  29.6173250  52.6341640
  63.3028290  28.7564460  51.8255200  66.2100740  29.4251480  37.3439730
  65.6610840  29.8720780  37.9882470  66.8320000  28.9200730  37.8677400
  70.2635680  30.7793580  53.2761990  71.0045150  31.1169340  52.7729450
  69.5008360  30.9485640  52.7231760  58.0997470  25.7846850  54.0801520
  58.1402810  25.4860720  54.9886750  58.9542970  26.1854460  53.9209040
  61.8775860  28.3842400  39.2405030  62.2992280  28.2182270  40.0836420
  62.0026700  27.5742630  38.7460170  60.0403280  24.3638950  52.0476010
  59.5099740  23.8729900  51.4199350  60.7091350  24.7923150  51.5133940
  64.3903500  27.4080010  36.4882130  64.9109160  26.6929030  36.1223280
  65.0371900  28.0465880  36.7882640  68.9381340  28.8308410  51.8117200
  69.3522360  28.9853490  52.6607620  68.0032340  28.9563630  51.9742980
  69.4103510  26.1704570  53.8156350  69.9924280  25.4156890  53.7276830
  69.5865280  26.7012010  53.0387830  60.5275580  21.3301320  52.1273300
  60.4332450  20.7122070  51.4024170  59.9472970  22.0567610  51.9003210
  63.2937020  19.8874560  49.1600690  62.8454320  19.9098820  48.3146240
  62.6602220  19.4893580  49.7570990  63.6996570  28.7828890  49.7813130
  64.1184680  29.6261620  49.6089370  62.7805200  28.9200930  49.5519910
  66.0360470  26.5145070  51.1650970  66.1556680  25.9186210  51.9045810
  66.8954470  26.5514760  50.7452270  68.3748370  27.0682260  49.7413480
  67.8483590  27.5924880  49.1378620  68.7179710  27.7009650  50.3723210
  60.7734760  24.4575630  36.1863190  60.5723820  23.5942990  36.5476530
  60.6026810  24.3708990  35.2484790  61.5503990  35.0881900  50.8970860
  61.0125080  35.8127960  50.5779560  61.8037950  34.6112240  50.1068200
  62.8029240  23.0566420  52.4226790  63.3928930  22.7482270  53.1104610
  61.9849480  22.5846170  52.5786690  67.6222670  22.6732230  52.6559810
  66.9338190  22.0113770  52.5909800  68.3428690  22.2270500  53.1008270
  68.2523070  19.2683860  38.7150070  68.5325360  18.4251760  39.0709490
  67.4788800  19.5006970  39.2288820  59.5717560  21.5576250  36.1741070
  59.8743460  21.5643680  35.2660220  60.3112150  21.2074110  36.6708730
  64.4066200  36.3233110  51.1557510  64.3324900  37.2268250  51.4629880
  63.5045040  36.0045010  51.1279580  62.7902490  20.5010870  37.1597270
  62.4424490  19.8234860  36.5799720  62.9915260  20.0400380  37.9740660
  64.9551530  35.4891620  38.7783870  65.8502320  35.8276590  38.8002630
  64.9869160  34.7671030  38.1508150  58.5947690  30.8618670  37.0070870
  59.0322560  31.4048340  37.6628450  59.0795420  30.0365620  37.0167210
  55.8093490  33.6507700  44.4591130  56.1396500  32.7828760  44.2269770
  56.2384490  33.8566220  45.2896090  60.4055410  31.9816710  42.1193100
  60.1050950  31.8581680  43.0197010  60.2992900  31.1225300  41.7108830
  56.2983700  34.5178290  47.1972760  55.8614690  34.6979090  48.0296910
  56.8661380  35.2752910  47.0554480  56.1308130  27.0298520  43.5561640
  55.4756970  26.7610160  42.9121340  56.9686080  26.9203000  43.1063620
  69.0798570  21.8239810  37.7780130  69.4983450  21.6370790  36.9376790
  68.7734630  20.9718860  38.0883060  57.1684060  27.4151090  48.0964980
  57.5357100  27.3278490  48.9761000  56.5994880  26.6517640  47.9971840
  56.7200060  24.3260180  52.0023400  55.8256110  24.2926940  52.3417110
  57.2597610  24.5246970  52.7674650  55.3446210  24.2397450  39.4986970
  54.4410290  24.5027650  39.3238630  55.8286830  24.5108620  38.7186930
  57.8873420  23.2962990  37.4081350  58.5965120  22.8746210  36.9228630
  57.1713360  23.3638220  36.7764700  57.5347580  19.3502320  36.4484000
  58.2575710  19.8911260  36.7665220  57.8072100  19.0765740  35.5725540
  57.2239770  18.6008510  46.3506620  57.8715960  18.0505890  45.9101780
  57.6441610  18.8551660  47.1722430  56.9771770  18.7564180  49.0931940
  56.6286590  19.2128000  49.8590120  56.6459470  17.8621310  49.1754370
  58.5836140  31.9283780  53.2585130  58.5405770  31.5576690  54.1399590
  58.7147150  32.8661350  53.3986950  62.2842170  33.4843370  48.8594850
  62.0433530  33.7517930  47.9725370  63.2244810  33.6549100  48.9145710
  64.4896590  19.9476060  52.6151360  64.4285480  20.5397890  53.3646770
  65.4296970  19.8402020  52.4701620  67.1271150  19.6046120  52.2543650
  67.7411560  19.9225410  51.5924730  67.6720710  19.1194710  52.8739510
  57.6492410  18.2840380  52.3682710  58.1975400  18.1028430  51.6048820
  57.7147720  17.4934490  52.9039020  58.4224170  34.8746030  50.3782910
  57.8284490  34.7430730  51.1172950  58.4148010  34.0384170  49.9125010
  67.8679190  18.1678260  48.5812940  66.9939030  18.5013370  48.3785870
  67.7589940  17.6951440  49.4064810  68.7751170  20.3749130  49.9654660
  68.4464530  19.5600890  49.5856390  69.7233470  20.3318940  49.8420350
  58.0536400  32.2404410  49.3290950  57.3270460  31.6209700  49.2616900
  58.1145550  32.6345020  48.4589030  61.6581500  34.4549410  46.1140360
  62.1746520  33.8436770  45.5888620  62.3078880  34.9578190  46.6051370
  64.3977000  35.3457900  46.9409340  64.6854810  35.0912200  46.0642350
  64.9100220  34.7935260  47.5314910  65.6154010  19.0848100  47.5205850
  64.8325800  19.5593600  47.8002610  65.3216940  18.1802930  47.4119030
  70.1675080  19.7871200  45.5654940  70.6083170  19.7316300  44.7176540
  69.8982670  20.7029210  45.6365120  56.3366400  35.5578800  42.5387710
  56.1688440  34.9249480  43.2369600  55.4700910  35.7638200  42.1881900
  56.9594420  19.3895580  40.0419570  57.7173780  19.5024460  39.4683600
  56.4971590  20.2264780  39.9963000  63.5008230  21.5034850  43.0321880
  62.6882740  21.1291740  42.6917760  64.0049870  20.7479930  43.3343070
  68.0033210  18.1677300  44.2704950  68.6062580  18.7397510  44.7453470
  67.2626200  18.7316740  44.0478850  57.9429100  34.2512030  39.9837850
  57.4176720  34.6320060  39.2799810  57.8673680  34.8762800  40.7047560
  59.3319570  19.9159630  38.5821540  59.8612330  19.1289430  38.4529490
  59.9647890  20.5950820  38.8157070  61.5257410  19.6534770  41.6366930
  60.8960150  18.9522080  41.8037060  60.9862550  20.4138900  41.4200090
  64.4649360  36.2674000  54.3077540  65.3916670  36.0318270  54.3513500
  64.4499790  37.0946000  53.8263570  61.6512970  18.9318750  54.0719420
  61.3697240  19.4352350  53.3080240  62.0332670  18.1340500  53.7061550
  60.5422070  36.1994410  38.8587100  61.2740890  35.9153690  38.3110990
  60.8015740  35.9607690  39.7486480  59.7036860  32.3159140  38.8633430
  59.0745740  32.7844240  39.4119260  59.8184690  31.4708360  39.2979620
  68.2528430  18.3472330  54.6499890  68.1393880  18.6666940  55.5451410
  69.0698170  18.7484840  54.3537170  67.1586580  26.3664800  25.0134630
  67.0780630  25.4519410  24.7426340  66.7451000  26.8631870  24.3074340
  65.2904620  28.1443820  26.8943900  64.5146720  27.6644260  27.1842470
  65.9417550  27.4649470  26.7200060  59.3070450  28.4563630  27.7719660
  58.4755330  28.2012340  28.1716170  59.9151430  28.5274400  28.5077580
  69.3112050  32.5504010  25.6743030  68.8493580  31.7791250  26.0030200
  70.1237600  32.5770080  26.1795480  59.2871710  32.4903720  27.9677680
  59.5899750  31.6001460  27.7887900  60.0315300  33.0473940  27.7399930
  57.7162400  23.4165520  21.5562050  56.8279100  23.7581490  21.4541930
  58.0003590  23.2165840  20.6642880  55.6795410  26.0171170  27.4401750
  56.2511520  25.2493370  27.4405390  55.6796950  26.3159930  26.5308360
  65.5375360  34.8362020  25.2947020  64.9186800  35.2919520  24.7241460
  66.3927140  34.9913480  24.8936720  64.7313610  30.8201010  26.9014060
  64.6621890  29.8790950  26.7403190  65.4933470  30.9102420  27.4736630
  56.9220280  21.4255530  29.2270680  56.7423120  20.5281280  29.5073440
  56.5200360  21.9727400  29.9017630  65.7618780  23.6271390  27.1282990
  66.1383600  22.7543270  27.0156660  65.6638290  23.9630090  26.2373430
  59.8923790  21.9997020  22.5900430  59.9990540  22.9000750  22.8969190
  58.9816150  21.9514990  22.2995080  69.5442900  21.1221830  24.0611330
  70.3652520  20.6318400  24.1036810  69.5776980  21.7119490  24.8143170
  57.5406950  23.9216030  27.8353020  58.2217060  24.1854400  28.4540420
  57.2255000  23.0816900  28.1691030  61.7331520  24.9683390  26.9225610
  62.2409740  25.4664360  27.5630630  62.2644760  24.1918590  26.7464970
  60.0167620  19.6081950  31.1889030  60.0186060  20.1254340  30.3834930
  59.1871930  19.1312130  31.1658960  66.4038710  29.7201260  22.6878930
  65.7855980  30.1850710  22.1241650  66.9161960  30.4128740  23.1048440
  61.2670470  29.2477130  29.3662530  60.9339850  29.8746050  30.0083600
  61.4437150  29.7739010  28.5864200  69.7804380  23.0622210  26.8338870
  69.0759950  23.3507100  27.4141980  70.1416540  23.8722320  26.4738430
  59.6982950  21.3191910  29.1959480  60.0399760  22.1633960  28.9013350
  58.7598760  21.4675650  29.3124820  60.4789570  31.2157930  31.1811710
  61.0963570  31.8909010  30.8996160  59.6182690  31.6245910  31.0899210
  55.7721910  30.4057790  20.0618560  55.3949890  30.8944890  19.3303460
  56.0294980  31.0783070  20.6925090  63.3810840  18.8074180  25.5204070
  63.6885820  18.2521070  24.8039570  62.4511540  18.9418640  25.3377060
  68.9325900  34.5241470  27.8111530  68.9453060  34.1203760  26.9433790
  68.3801120  35.2988760  27.7072960  70.2271320  31.2457690  22.9001700
  70.1167650  30.3032020  23.0251120  70.2239570  31.6073330  23.7864460
  68.3311340  29.4271310  29.1394140  68.7480130  29.2131420  28.3047600
  69.0551160  29.6844100  29.7102760  65.7691600  26.8723010  22.2564190
  64.8420880  26.8060390  22.4852660  65.9216420  27.8103140  22.1419430
  65.7560680  23.1440010  19.2531350  64.8164350  23.3053970  19.3383810
  66.0743940  23.8625690  18.7067340  69.7988890  28.4343310  22.7599440
  69.1801310  28.0962860  22.1125740  69.7813340  27.7903070  23.4678630
  69.2415450  24.6127850  30.1765250  68.8286630  25.4381560  30.4305240
  68.5091400  24.0272890  29.9841610  61.3748240  27.3987750  25.0383920
  60.9705240  26.6865000  24.5429820  61.4611360  27.0540990  25.9271960
  61.8429940  31.0855310  27.2023130  61.5458230  30.4800780  26.5230910
  62.7929760  31.1232620  27.0912490  60.0876860  24.1730960  28.8182960
  60.6391450  24.2826300  28.0436210  60.6020370  24.5468560  29.5338190
  69.9315550  34.6587180  30.8646230  69.4546110  35.4659370  30.6718840
  69.2477340  34.0065510  31.0172440  60.9348370  30.8237000  33.8530930
  60.0376900  31.0476970  34.1004330  60.9601240  30.9471940  32.9042330
  67.9753590  27.6730120  19.7672190  68.4146870  26.8352550  19.6210010
  68.6882010  28.3059520  19.8536330  59.7619590  27.6950320  32.4288300
  59.6227360  28.5673120  32.7975700  58.8800950  27.3523130  32.2836240
  66.0848970  32.6126190  23.7353430  66.5244880  33.3550520  23.3208820
  66.0235860  32.8552760  24.6592390  61.5599940  33.6372020  34.6373450
  61.5315370  34.0414970  33.7701880  61.3964910  32.7082380  34.4745050
  58.0752870  26.2932730  22.5390570  57.9550470  27.0194820  21.9271840
  57.7653760  25.5235640  22.0618480  55.7138240  29.4647870  28.3459210
  55.7918660  29.5996640  27.4014930  56.3279920  28.7563760  28.5387330
  56.9585870  31.1648060  24.7565390  56.5513950  31.3062650  23.9018990
  57.8498880  30.8808220  24.5536600  66.7764750  35.3139970  31.6632440
  67.2909420  35.2247980  32.4654870  65.9333830  35.6599670  31.9560350
  68.7519150  35.5995310  21.0916440  68.5920290  35.3098250  21.9898270
  68.5865860  34.8235440  20.5561670  61.2307530  35.3793840  22.8688060
  61.0550010  34.4629380  22.6555860  60.3763270  35.7381130  23.1085860
  68.4545280  33.1082870  19.6514440  67.7610440  33.1060160  18.9916720
  69.1968140  32.6842190  19.2208610  68.0195210  34.7345580  23.7262930
  68.4752160  33.9534960  24.0401550  68.3587730  35.4452400  24.2704110
  55.7697760  30.5062040  30.8853670  55.9328800  30.0367400  30.0673040
  56.2350210  29.9985600  31.5502510  60.5416530  19.6367800  25.9214240
  60.0984680  20.4177340  25.5898760  61.1001520  19.9597690  26.6285180
  64.8286340  22.5036320  31.5249560  64.3665710  22.7119340  32.3369500
  64.4264450  21.6895670  31.2220230  69.8290850  23.7245270  32.6546220
  68.9784440  23.4251020  32.9755290  69.6692640  23.9687280  31.7430040
  66.9240560  25.2247020  34.7545010  67.2493970  24.3910770  34.4147240
  67.7120890  25.7475540  34.9023340  63.6575350  19.2578500  20.8020070
  63.0329530  19.2538370  21.5273380  63.5705470  18.3909460  20.4056040
  62.5792430  20.1815130  27.7803840  62.8764760  21.0877960  27.6995860
  63.1277990  19.6933910  27.1663410  60.3330750  24.7601370  23.6495490
  60.1071670  24.5438540  24.5542110  59.5523280  25.1929830  23.3041460
  67.5628510  24.7664740  22.2486140  66.9637400  25.4900540  22.0649760
  68.1108120  24.7041520  21.4662590  62.7729960  25.6586950  34.3155760
  62.6773560  24.7181680  34.1656160  63.6161940  25.8802020  33.9203830
  66.1693380  23.4028280  24.2789420  66.5622950  23.7200480  23.4658110
  66.5310230  22.5240160  24.3933940  57.9040500  22.0700620  32.4689540
  57.5103890  22.9175830  32.6762320  57.2158900  21.4326990  32.6598180
  64.4785550  22.1535590  35.5386280  63.7883870  21.9607790  36.1732370
  65.2217850  22.4370230  36.0710580  55.2057550  19.9929080  26.5019620
  54.9170600  20.5631940  27.2144600  55.9503310  19.5133530  26.8650850
  55.3927780  23.9349200  17.7122340  55.3102450  24.8779960  17.8537330
  55.0410840  23.7924110  16.8334690  66.7548520  25.9934030  28.3740200
  66.0229640  26.5020840  28.7230300  66.3572860  25.1764010  28.0728980
  63.1925910  22.6688230  26.7792690  63.1961970  22.2278180  25.9297230
  64.0877030  22.9905560  26.8864510  59.0428290  22.5514720  25.7386900
  58.7028340  23.0289950  26.4953950  58.2805610  22.0979840  25.3788000
  63.2546060  23.6700310  19.7699450  63.3758880  23.6286790  20.7185270
  62.8694570  24.5324460  19.6146180  67.2174430  21.4467710  27.7863140
  67.2347170  21.8976360  28.6304990  66.9690010  20.5473350  27.9996580
  62.2667560  25.9801450  19.1682750  61.6984460  25.5319700  18.5418660
  62.9756560  26.3394230  18.6347900  70.6445180  18.8599890  33.6249520
  70.9690950  18.1289550  34.1507500  70.6801690  18.5413530  32.7230510
  57.3436740  29.8813470  33.0449480  56.9591530  29.2407140  33.6432440
  57.6548930  30.5849590  33.6144210  63.4933880  26.7290010  28.5258100
  63.8604010  26.2548580  29.2719440  63.3038940  27.6031580  28.8666440
  56.3574370  21.4733700  24.6551570  56.0721290  21.1089370  25.4930190
  56.2953230  20.7414160  24.0414710  61.2833250  25.7698650  30.8442310
  60.9790320  26.6490630  31.0692670  62.2379710  25.8298440  30.8799750
  59.8115040  29.9759640  21.4409160  59.0377300  29.4357260  21.2807880
  60.5409670  29.4566250  21.1026920  66.0312960  20.3662960  21.3764940
  65.2177570  19.8676130  21.3010250  65.8374910  21.2061210  20.9601290
  65.9521820  29.0434060  33.1204550  65.8859130  28.1229730  32.8662140
  65.3226960  29.1409500  33.8349190  68.7461350  24.7382610  19.6727100
  69.6340970  25.0499840  19.4978440  68.7166440  23.8654860  19.2807680
  59.8552440  29.6440020  25.0787970  60.3731110  28.8408280  25.0244860
  59.4036460  29.5819160  25.9204800  64.7421940  30.9106300  20.3515270
  65.0837640  31.6548530  19.8558590  63.9134650  31.2237420  20.7140100
  57.3396980  26.6101390  31.9913670  56.9811920  27.2755240  32.5787010
  57.0451540  25.7784940  32.3626290  60.5410100  27.0685630  34.8753220
  60.2410240  27.2142810  33.9781040  61.3121340  26.5090920  34.7826610
  65.8838550  31.8654630  32.8708350  65.8983090  30.9335590  32.6527260
  65.1763650  31.9514390  33.5098120  67.6249350  30.2322140  25.7160780
  67.9773170  29.6350270  25.0562150  66.7411680  29.9066370  25.8869030
  63.7112630  30.9919830  23.1231190  64.3983760  31.5389040  23.5038780
  62.9245050  31.5360560  23.1580800  55.8505030  26.6092650  18.6148270
  56.7199880  26.8917450  18.8984190  55.3595350  27.4228520  18.4997080
  63.0139840  27.9965860  22.7356550  63.4702620  28.8071110  22.9616740
  62.6628050  27.6789000  23.5675040  65.3172450  33.5072200  29.9648850
  65.9614670  33.7131580  30.6422270  65.6801890  32.7460600  29.5119700
  58.9151620  18.3403510  23.2079070  58.7866250  18.3321410  24.1563990
  58.0913640  18.6786600  22.8570080  66.5904530  31.5104550  28.6826300
  67.2326760  30.8097710  28.7958470  67.1153880  32.2902990  28.5023190
  70.4360250  31.7953170  18.4065440  70.2097830  31.0783610  18.9990080
  70.0456450  31.5465610  17.5687190  68.3642150  32.3099450  31.8862360
  68.6998390  32.8966140  32.5640280  67.4442490  32.1792160  32.1160150
  56.2176280  35.8220030  19.1809900  56.5773920  36.4209370  18.5267170
  56.0768620  36.3679920  19.9544930  55.9145550  20.0994630  32.6685770
  55.2004070  20.2991550  33.2738380  56.3340590  19.3234200  33.0400570
  70.0176500  29.7125110  20.0679600  69.7298200  30.1737800  20.8557480
  70.8128670  29.2522880  20.3363820  56.2018140  34.0874890  33.6552300
  56.3109260  33.1469630  33.5147690  55.5498700  34.3529640  33.0066030
  64.1930730  32.3590780  35.0550420  63.8727600  31.6400020  35.5996110
  63.5189090  33.0345850  35.1286480  62.2344900  33.2051230  19.9983570
  62.2255000  33.9380920  19.3828080  61.3143260  32.9582810  20.0910530
  57.8351540  28.4266120  20.7430330  57.2279490  29.1665020  20.7525630
  58.3100890  28.5165480  19.9168530  67.4084330  22.5916940  30.4187220
  67.7765150  21.7712150  30.7466790  66.5482530  22.6518830  30.8342870
  70.7746360  21.5473880  21.2274780  70.1459520  21.6519550  20.5133010
  70.2798280  21.7670660  22.0168660  65.2204500  33.2679470  18.6608760
  65.3216480  33.0643460  17.7310740  64.3206240  33.0137750  18.8656540
  62.7430390  23.8259830  22.6432660  62.0346540  24.2946170  23.0846270
  63.0274870  23.1681840  23.2777850  64.3686320  25.2456530  30.6425190
  64.8671570  25.7202350  31.3077040  64.5109270  24.3220050  30.8495220
  66.7745820  20.5510490  24.0828450  66.6513600  20.5696620  23.1337960
  67.7230380  20.5989430  24.2026850  63.8622610  35.7865790  23.3556430
  64.1164110  35.7487180  22.4335800  62.9135090  35.6599120  23.3484680
  60.9465410  22.1344910  20.0183370  61.7955940  22.5715060  19.9523560
  60.5796680  22.4465170  20.8455430  69.8675190  26.7057670  24.9314940
  68.9265330  26.7207900  25.1062630  70.1819260  25.9193630  25.3775240
  59.8456830  28.3877270  18.4918900  60.6120100  28.2758630  19.0544330
  59.9231520  27.6915240  17.8395670  58.5403590  25.8202340  19.1751790
  58.6207180  24.8729850  19.2869190  59.4323340  26.1509220  19.2812450
  59.3418300  35.9697730  26.2786330  60.0780780  35.4213190  26.5494900
  59.7259220  36.8353740  26.1392320  56.2263780  32.0371300  22.1527840
  55.3003560  32.2792440  22.1433250  56.6920210  32.8645560  22.0312590
  58.3476580  35.1543800  35.4671910  59.1489310  35.4755850  35.8807310
  57.8328400  34.7939380  36.1891820  62.4520610  35.1428040  18.1011900
  63.2449220  35.4316870  17.6493690  61.9324960  34.7120210  17.4224380
  67.1841210  31.2623670  35.4147320  66.5779370  31.2855270  34.6743070
  66.8795320  30.5306710  35.9514570  68.6141580  34.9903960  34.0256730
  69.5663330  34.9061980  33.9756970  68.4669800  35.6545670  34.6990520
  56.0674390  27.6417260  34.4107960  56.5713410  27.0624540  34.9824190
  55.3281810  27.9257490  34.9484330  62.9698010  30.3631450  17.9654250
  62.8648650  29.7483800  18.6915630  62.8022230  29.8397340  17.1817260
  63.1212330  29.0488250  33.9443480  62.3558000  29.6173250  33.8598150
  63.3028290  28.7564460  33.0511710  66.2100740  29.4251480  18.5696240
  65.6610840  29.8720780  19.2138980  66.8320000  28.9200730  19.0933910
  70.2635680  30.7793580  34.5018500  71.0045150  31.1169340  33.9985960
  69.5008360  30.9485640  33.9488270  58.0997470  25.7846850  35.3058030
  58.1402810  25.4860720  36.2143260  58.9542970  26.1854460  35.1465550
  61.8775860  28.3842400  20.4661540  62.2992280  28.2182270  21.3092930
  62.0026700  27.5742630  19.9716680  60.0403280  24.3638950  33.2732520
  59.5099740  23.8729900  32.6455860  60.7091350  24.7923150  32.7390450
  64.3903500  27.4080010  17.7138640  64.9109160  26.6929030  17.3479790
  65.0371900  28.0465880  18.0139150  68.9381340  28.8308410  33.0373710
  69.3522360  28.9853490  33.8864130  68.0032340  28.9563630  33.1999490
  69.4103510  26.1704570  35.0412860  69.9924280  25.4156890  34.9533340
  69.5865280  26.7012010  34.2644340  60.5275580  21.3301320  33.3529810
  60.4332450  20.7122070  32.6280680  59.9472970  22.0567610  33.1259720
  63.2937020  19.8874560  30.3857200  62.8454320  19.9098820  29.5402750
  62.6602220  19.4893580  30.9827500  63.6996570  28.7828890  31.0069640
  64.1184680  29.6261620  30.8345880  62.7805200  28.9200930  30.7776420
  66.0360470  26.5145070  32.3907480  66.1556680  25.9186210  33.1302320
  66.8954470  26.5514760  31.9708780  68.3748370  27.0682260  30.9669990
  67.8483590  27.5924880  30.3635130  68.7179710  27.7009650  31.5979720
  60.7734760  24.4575630  17.4119700  60.5723820  23.5942990  17.7733040
  60.6026810  24.3708990  16.4741300  61.5503990  35.0881900  32.1227370
  61.0125080  35.8127960  31.8036070  61.8037950  34.6112240  31.3324710
  62.8029240  23.0566420  33.6483300  63.3928930  22.7482270  34.3361120
  61.9849480  22.5846170  33.8043200  67.6222670  22.6732230  33.8816320
  66.9338190  22.0113770  33.8166310  68.3428690  22.2270500  34.3264780
  68.2523070  19.2683860  19.9406580  68.5325360  18.4251760  20.2966000
  67.4788800  19.5006970  20.4545330  59.5717560  21.5576250  17.3997580
  59.8743460  21.5643680  16.4916730  60.3112150  21.2074110  17.8965240
  64.4066200  36.3233110  32.3814020  64.3324900  37.2268250  32.6886390
  63.5045040  36.0045010  32.3536090  62.7902490  20.5010870  18.3853780
  62.4424490  19.8234860  17.8056230  62.9915260  20.0400380  19.1997170
  64.9551530  35.4891620  20.0040380  65.8502320  35.8276590  20.0259140
  64.9869160  34.7671030  19.3764660  58.5947690  30.8618670  18.2327380
  59.0322560  31.4048340  18.8884960  59.0795420  30.0365620  18.2423720
  55.8093490  33.6507700  25.6847640  56.1396500  32.7828760  25.4526280
  56.2384490  33.8566220  26.5152600  60.4055410  31.9816710  23.3449610
  60.1050950  31.8581680  24.2453520  60.2992900  31.1225300  22.9365340
  56.2983700  34.5178290  28.4229270  55.8614690  34.6979090  29.2553420
  56.8661380  35.2752910  28.2810990  56.1308130  27.0298520  24.7818150
  55.4756970  26.7610160  24.1377850  56.9686080  26.9203000  24.3320130
  69.0798570  21.8239810  19.0036640  69.4983450  21.6370790  18.1633300
  68.7734630  20.9718860  19.3139570  57.1684060  27.4151090  29.3221490
  57.5357100  27.3278490  30.2017510  56.5994880  26.6517640  29.2228350
  56.7200060  24.3260180  33.2279910  55.8256110  24.2926940  33.5673620
  57.2597610  24.5246970  33.9931160  55.3446210  24.2397450  20.7243480
  54.4410290  24.5027650  20.5495140  55.8286830  24.5108620  19.9443440
  57.8873420  23.2962990  18.6337860  58.5965120  22.8746210  18.1485140
  57.1713360  23.3638220  18.0021210  57.5347580  19.3502320  17.6740510
  58.2575710  19.8911260  17.9921730  57.8072100  19.0765740  16.7982050
  57.2239770  18.6008510  27.5763130  57.8715960  18.0505890  27.1358290
  57.6441610  18.8551660  28.3978940  56.9771770  18.7564180  30.3188450
  56.6286590  19.2128000  31.0846630  56.6459470  17.8621310  30.4010880
  58.5836140  31.9283780  34.4841640  58.5405770  31.5576690  35.3656100
  58.7147150  32.8661350  34.6243460  62.2842170  33.4843370  30.0851360
  62.0433530  33.7517930  29.1981880  63.2244810  33.6549100  30.1402220
  64.4896590  19.9476060  33.8407870  64.4285480  20.5397890  34.5903280
  65.4296970  19.8402020  33.6958130  67.1271150  19.6046120  33.4800160
  67.7411560  19.9225410  32.8181240  67.6720710  19.1194710  34.0996020
  57.6492410  18.2840380  33.5939220  58.1975400  18.1028430  32.8305330
  57.7147720  17.4934490  34.1295530  58.4224170  34.8746030  31.6039420
  57.8284490  34.7430730  32.3429460  58.4148010  34.0384170  31.1381520
  67.8679190  18.1678260  29.8069450  66.9939030  18.5013370  29.6042380
  67.7589940  17.6951440  30.6321320  68.7751170  20.3749130  31.1911170
  68.4464530  19.5600890  30.8112900  69.7233470  20.3318940  31.0676860
  58.0536400  32.2404410  30.5547460  57.3270460  31.6209700  30.4873410
  58.1145550  32.6345020  29.6845540  61.6581500  34.4549410  27.3396870
  62.1746520  33.8436770  26.8145130  62.3078880  34.9578190  27.8307880
  64.3977000  35.3457900  28.1665850  64.6854810  35.0912200  27.2898860
  64.9100220  34.7935260  28.7571420  65.6154010  19.0848100  28.7462360
  64.8325800  19.5593600  29.0259120  65.3216940  18.1802930  28.6375540
  70.1675080  19.7871200  26.7911450  70.6083170  19.7316300  25.9433050
  69.8982670  20.7029210  26.8621630  56.3366400  35.5578800  23.7644220
  56.1688440  34.9249480  24.4626110  55.4700910  35.7638200  23.4138410
  56.9594420  19.3895580  21.2676080  57.7173780  19.5024460  20.6940110
  56.4971590  20.2264780  21.2219510  63.5008230  21.5034850  24.2578390
  62.6882740  21.1291740  23.9174270  64.0049870  20.7479930  24.5599580
  68.0033210  18.1677300  25.4961460  68.6062580  18.7397510  25.9709980
  67.2626200  18.7316740  25.2735360  57.9429100  34.2512030  21.2094360
  57.4176720  34.6320060  20.5056320  57.8673680  34.8762800  21.9304070
  59.3319570  19.9159630  19.8078050  59.8612330  19.1289430  19.6786000
  59.9647890  20.5950820  20.0413580  61.5257410  19.6534770  22.8623440
  60.8960150  18.9522080  23.0293570  60.9862550  20.4138900  22.6456600
  64.4649360  36.2674000  35.5334050  65.3916670  36.0318270  35.5770010
  64.4499790  37.0946000  35.0520080  61.6512970  18.9318750  35.2975930
  61.3697240  19.4352350  34.5336750  62.0332670  18.1340500  34.9318060
  60.5422070  36.1994410  20.0843610  61.2740890  35.9153690  19.5367500
  60.8015740  35.9607690  20.9742990  59.7036860  32.3159140  20.0889940
  59.0745740  32.7844240  20.6375770  59.8184690  31.4708360  20.5236130
  68.2528430  18.3472330  35.8756400  68.1393880  18.6666940  36.7707920
  69.0698170  18.7484840  35.5793680  67.1586580  26.3664800   6.2391140
  67.0780630  25.4519410   5.9682850  66.7451000  26.8631870   5.5330850
  65.2904620  28.1443820   8.1200410  64.5146720  27.6644260   8.4098980
  65.9417550  27.4649470   7.9456570  59.3070450  28.4563630   8.9976170
  58.4755330  28.2012340   9.3972680  59.9151430  28.5274400   9.7334090
  69.3112050  32.5504010   6.8999540  68.8493580  31.7791250   7.2286710
  70.1237600  32.5770080   7.4051990  59.2871710  32.4903720   9.1934190
  59.5899750  31.6001460   9.0144410  60.0315300  33.0473940   8.9656440
  57.7162400  23.4165520   2.7818560  56.8279100  23.7581490   2.6798440
  58.0003590  23.2165840   1.8899390  55.6795410  26.0171170   8.6658260
  56.2511520  25.2493370   8.6661900  55.6796950  26.3159930   7.7564870
  65.5375360  34.8362020   6.5203530  64.9186800  35.2919520   5.9497970
  66.3927140  34.9913480   6.1193230  64.7313610  30.8201010   8.1270570
  64.6621890  29.8790950   7.9659700  65.4933470  30.9102420   8.6993140
  56.9220280  21.4255530  10.4527190  56.7423120  20.5281280  10.7329950
  56.5200360  21.9727400  11.1274140  65.7618780  23.6271390   8.3539500
  66.1383600  22.7543270   8.2413170  65.6638290  23.9630090   7.4629940
  59.8923790  21.9997020   3.8156940  59.9990540  22.9000750   4.1225700
  58.9816150  21.9514990   3.5251590  69.5442900  21.1221830   5.2867840
  70.3652520  20.6318400   5.3293320  69.5776980  21.7119490   6.0399680
  57.5406950  23.9216030   9.0609530  58.2217060  24.1854400   9.6796930
  57.2255000  23.0816900   9.3947540  61.7331520  24.9683390   8.1482120
  62.2409740  25.4664360   8.7887140  62.2644760  24.1918590   7.9721480
  60.0167620  19.6081950  12.4145540  60.0186060  20.1254340  11.6091440
  59.1871930  19.1312130  12.3915470  66.4038710  29.7201260   3.9135440
  65.7855980  30.1850710   3.3498160  66.9161960  30.4128740   4.3304950
  61.2670470  29.2477130  10.5919040  60.9339850  29.8746050  11.2340110
  61.4437150  29.7739010   9.8120710  69.7804380  23.0622210   8.0595380
  69.0759950  23.3507100   8.6398490  70.1416540  23.8722320   7.6994940
  59.6982950  21.3191910  10.4215990  60.0399760  22.1633960  10.1269860
  58.7598760  21.4675650  10.5381330  60.4789570  31.2157930  12.4068220
  61.0963570  31.8909010  12.1252670  59.6182690  31.6245910  12.3155720
  63.3810840  18.8074180   6.7460580  63.6885820  18.2521070   6.0296080
  62.4511540  18.9418640   6.5633570  68.9325900  34.5241470   9.0368040
  68.9453060  34.1203760   8.1690300  68.3801120  35.2988760   8.9329470
  70.2271320  31.2457690   4.1258210  70.1167650  30.3032020   4.2507630
  70.2239570  31.6073330   5.0120970  68.3311340  29.4271310  10.3650650
  68.7480130  29.2131420   9.5304110  69.0551160  29.6844100  10.9359270
  65.7691600  26.8723010   3.4820700  64.8420880  26.8060390   3.7109170
  65.9216420  27.8103140   3.3675940  69.7988890  28.4343310   3.9855950
  69.1801310  28.0962860   3.3382250  69.7813340  27.7903070   4.6935140
  69.2415450  24.6127850  11.4021760  68.8286630  25.4381560  11.6561750
  68.5091400  24.0272890  11.2098120  61.3748240  27.3987750   6.2640430
  60.9705240  26.6865000   5.7686330  61.4611360  27.0540990   7.1528470
  61.8429940  31.0855310   8.4279640  61.5458230  30.4800780   7.7487420
  62.7929760  31.1232620   8.3169000  60.0876860  24.1730960  10.0439470
  60.6391450  24.2826300   9.2692720  60.6020370  24.5468560  10.7594700
  69.9315550  34.6587180  12.0902740  69.4546110  35.4659370  11.8975350
  69.2477340  34.0065510  12.2428950  60.9348370  30.8237000  15.0787440
  60.0376900  31.0476970  15.3260840  60.9601240  30.9471940  14.1298840
  59.7619590  27.6950320  13.6544810  59.6227360  28.5673120  14.0232210
  58.8800950  27.3523130  13.5092750  66.0848970  32.6126190   4.9609940
  66.5244880  33.3550520   4.5465330  66.0235860  32.8552760   5.8848900
  61.5599940  33.6372020  15.8629960  61.5315370  34.0414970  14.9958390
  61.3964910  32.7082380  15.7001560  58.0752870  26.2932730   3.7647080
  57.9550470  27.0194820   3.1528350  57.7653760  25.5235640   3.2874990
  55.7138240  29.4647870   9.5715720  55.7918660  29.5996640   8.6271440
  56.3279920  28.7563760   9.7643840  56.9585870  31.1648060   5.9821900
  56.5513950  31.3062650   5.1275500  57.8498880  30.8808220   5.7793110
  66.7764750  35.3139970  12.8888950  67.2909420  35.2247980  13.6911380
  65.9333830  35.6599670  13.1816860  68.7519150  35.5995310   2.3172950
  68.5920290  35.3098250   3.2154780  68.5865860  34.8235440   1.7818180
  61.2307530  35.3793840   4.0944570  61.0550010  34.4629380   3.8812370
  60.3763270  35.7381130   4.3342370  68.0195210  34.7345580   4.9519440
  68.4752160  33.9534960   5.2658060  68.3587730  35.4452400   5.4960620
  55.7697760  30.5062040  12.1110180  55.9328800  30.0367400  11.2929550
  56.2350210  29.9985600  12.7759020  60.5416530  19.6367800   7.1470750
  60.0984680  20.4177340   6.8155270  61.1001520  19.9597690   7.8541690
  64.8286340  22.5036320  12.7506070  64.3665710  22.7119340  13.5626010
  64.4264450  21.6895670  12.4476740  69.8290850  23.7245270  13.8802730
  68.9784440  23.4251020  14.2011800  69.6692640  23.9687280  12.9686550
  66.9240560  25.2247020  15.9801520  67.2493970  24.3910770  15.6403750
  67.7120890  25.7475540  16.1279850  62.5792430  20.1815130   9.0060350
  62.8764760  21.0877960   8.9252370  63.1277990  19.6933910   8.3919920
  60.3330750  24.7601370   4.8752000  60.1071670  24.5438540   5.7798620
  59.5523280  25.1929830   4.5297970  67.5628510  24.7664740   3.4742650
  66.9637400  25.4900540   3.2906270  68.1108120  24.7041520   2.6919100
  62.7729960  25.6586950  15.5412270  62.6773560  24.7181680  15.3912670
  63.6161940  25.8802020  15.1460340  66.1693380  23.4028280   5.5045930
  66.5622950  23.7200480   4.6914620  66.5310230  22.5240160   5.6190450
  57.9040500  22.0700620  13.6946050  57.5103890  22.9175830  13.9018830
  57.2158900  21.4326990  13.8854690  64.4785550  22.1535590  16.7642790
  63.7883870  21.9607790  17.3988880  65.2217850  22.4370230  17.2967090
  55.2057550  19.9929080   7.7276130  54.9170600  20.5631940   8.4401110
  55.9503310  19.5133530   8.0907360  66.7548520  25.9934030   9.5996710
  66.0229640  26.5020840   9.9486810  66.3572860  25.1764010   9.2985490
  63.1925910  22.6688230   8.0049200  63.1961970  22.2278180   7.1553740
  64.0877030  22.9905560   8.1121020  59.0428290  22.5514720   6.9643410
  58.7028340  23.0289950   7.7210460  58.2805610  22.0979840   6.6044510
  67.2174430  21.4467710   9.0119650  67.2347170  21.8976360   9.8561500
  66.9690010  20.5473350   9.2253090  70.6445180  18.8599890  14.8506030
  70.9690950  18.1289550  15.3764010  70.6801690  18.5413530  13.9487020
  57.3436740  29.8813470  14.2705990  56.9591530  29.2407140  14.8688950
  57.6548930  30.5849590  14.8400720  63.4933880  26.7290010   9.7514610
  63.8604010  26.2548580  10.4975950  63.3038940  27.6031580  10.0922950
  56.3574370  21.4733700   5.8808080  56.0721290  21.1089370   6.7186700
  56.2953230  20.7414160   5.2671220  61.2833250  25.7698650  12.0698820
  60.9790320  26.6490630  12.2949180  62.2379710  25.8298440  12.1056260
  59.8115040  29.9759640   2.6665670  59.0377300  29.4357260   2.5064390
  60.5409670  29.4566250   2.3283430  66.0312960  20.3662960   2.6021450
  65.2177570  19.8676130   2.5266760  65.8374910  21.2061210   2.1857800
  65.9521820  29.0434060  14.3461060  65.8859130  28.1229730  14.0918650
  65.3226960  29.1409500  15.0605700  59.8552440  29.6440020   6.3044480
  60.3731110  28.8408280   6.2501370  59.4036460  29.5819160   7.1461310
  57.3396980  26.6101390  13.2170180  56.9811920  27.2755240  13.8043520
  57.0451540  25.7784940  13.5882800  60.5410100  27.0685630  16.1009730
  60.2410240  27.2142810  15.2037550  61.3121340  26.5090920  16.0083120
  65.8838550  31.8654630  14.0964860  65.8983090  30.9335590  13.8783770
  65.1763650  31.9514390  14.7354630  67.6249350  30.2322140   6.9417290
  67.9773170  29.6350270   6.2818660  66.7411680  29.9066370   7.1125540
  63.7112630  30.9919830   4.3487700  64.3983760  31.5389040   4.7295290
  62.9245050  31.5360560   4.3837310  63.0139840  27.9965860   3.9613060
  63.4702620  28.8071110   4.1873250  62.6628050  27.6789000   4.7931550
  65.3172450  33.5072200  11.1905360  65.9614670  33.7131580  11.8678780
  65.6801890  32.7460600  10.7376210  58.9151620  18.3403510   4.4335580
  58.7866250  18.3321410   5.3820500  58.0913640  18.6786600   4.0826590
  66.5904530  31.5104550   9.9082810  67.2326760  30.8097710  10.0214980
  67.1153880  32.2902990   9.7279700  68.3642150  32.3099450  13.1118870
  68.6998390  32.8966140  13.7896790  67.4442490  32.1792160  13.3416660
  55.9145550  20.0994630  13.8942280  55.2004070  20.2991550  14.4994890
  56.3340590  19.3234200  14.2657080  56.2018140  34.0874890  14.8808810
  56.3109260  33.1469630  14.7404200  55.5498700  34.3529640  14.2322540
  64.1930730  32.3590780  16.2806930  63.8727600  31.6400020  16.8252620
  63.5189090  33.0345850  16.3542990  67.4084330  22.5916940  11.6443730
  67.7765150  21.7712150  11.9723300  66.5482530  22.6518830  12.0599380
  70.7746360  21.5473880   2.4531290  70.1459520  21.6519550   1.7389520
  70.2798280  21.7670660   3.2425170  62.7430390  23.8259830   3.8689170
  62.0346540  24.2946170   4.3102780  63.0274870  23.1681840   4.5034360
  64.3686320  25.2456530  11.8681700  64.8671570  25.7202350  12.5333550
  64.5109270  24.3220050  12.0751730  66.7745820  20.5510490   5.3084960
  66.6513600  20.5696620   4.3594470  67.7230380  20.5989430   5.4283360
  63.8622610  35.7865790   4.5812940  64.1164110  35.7487180   3.6592310
  62.9135090  35.6599120   4.5741190  69.8675190  26.7057670   6.1571450
  68.9265330  26.7207900   6.3319140  70.1819260  25.9193630   6.6031750
  59.3418300  35.9697730   7.5042840  60.0780780  35.4213190   7.7751410
  59.7259220  36.8353740   7.3648830  56.2263780  32.0371300   3.3784350
  55.3003560  32.2792440   3.3689760  56.6920210  32.8645560   3.2569100
  58.3476580  35.1543800  16.6928420  59.1489310  35.4755850  17.1063820
  57.8328400  34.7939380  17.4148330  67.1841210  31.2623670  16.6403830
  66.5779370  31.2855270  15.8999580  66.8795320  30.5306710  17.1771080
  68.6141580  34.9903960  15.2513240  69.5663330  34.9061980  15.2013480
  68.4669800  35.6545670  15.9247030  56.0674390  27.6417260  15.6364470
  56.5713410  27.0624540  16.2080700  55.3281810  27.9257490  16.1740840
  63.1212330  29.0488250  15.1699990  62.3558000  29.6173250  15.0854660
  63.3028290  28.7564460  14.2768220  70.2635680  30.7793580  15.7275010
  71.0045150  31.1169340  15.2242470  69.5008360  30.9485640  15.1744780
  58.0997470  25.7846850  16.5314540  58.1402810  25.4860720  17.4399770
  58.9542970  26.1854460  16.3722060  60.0403280  24.3638950  14.4989030
  59.5099740  23.8729900  13.8712370  60.7091350  24.7923150  13.9646960
  68.9381340  28.8308410  14.2630220  69.3522360  28.9853490  15.1120640
  68.0032340  28.9563630  14.4256000  69.4103510  26.1704570  16.2669370
  69.9924280  25.4156890  16.1789850  69.5865280  26.7012010  15.4900850
  60.5275580  21.3301320  14.5786320  60.4332450  20.7122070  13.8537190
  59.9472970  22.0567610  14.3516230  63.2937020  19.8874560  11.6113710
  62.8454320  19.9098820  10.7659260  62.6602220  19.4893580  12.2084010
  63.6996570  28.7828890  12.2326150  64.1184680  29.6261620  12.0602390
  62.7805200  28.9200930  12.0032930  66.0360470  26.5145070  13.6163990
  66.1556680  25.9186210  14.3558830  66.8954470  26.5514760  13.1965290
  68.3748370  27.0682260  12.1926500  67.8483590  27.5924880  11.5891640
  68.7179710  27.7009650  12.8236230  61.5503990  35.0881900  13.3483880
  61.0125080  35.8127960  13.0292580  61.8037950  34.6112240  12.5581220
  62.8029240  23.0566420  14.8739810  63.3928930  22.7482270  15.5617630
  61.9849480  22.5846170  15.0299710  67.6222670  22.6732230  15.1072830
  66.9338190  22.0113770  15.0422820  68.3428690  22.2270500  15.5521290
  64.4066200  36.3233110  13.6070530  64.3324900  37.2268250  13.9142900
  63.5045040  36.0045010  13.5792600  55.8093490  33.6507700   6.9104150
  56.1396500  32.7828760   6.6782790  56.2384490  33.8566220   7.7409110
  60.4055410  31.9816710   4.5706120  60.1050950  31.8581680   5.4710030
  60.2992900  31.1225300   4.1621850  56.2983700  34.5178290   9.6485780
  55.8614690  34.6979090  10.4809930  56.8661380  35.2752910   9.5067500
  56.1308130  27.0298520   6.0074660  55.4756970  26.7610160   5.3634360
  56.9686080  26.9203000   5.5576640  57.1684060  27.4151090  10.5478000
  57.5357100  27.3278490  11.4274020  56.5994880  26.6517640  10.4484860
  56.7200060  24.3260180  14.4536420  55.8256110  24.2926940  14.7930130
  57.2597610  24.5246970  15.2187670  57.2239770  18.6008510   8.8019640
  57.8715960  18.0505890   8.3614800  57.6441610  18.8551660   9.6235450
  56.9771770  18.7564180  11.5444960  56.6286590  19.2128000  12.3103140
  56.6459470  17.8621310  11.6267390  58.5836140  31.9283780  15.7098150
  58.5405770  31.5576690  16.5912610  58.7147150  32.8661350  15.8499970
  62.2842170  33.4843370  11.3107870  62.0433530  33.7517930  10.4238390
  63.2244810  33.6549100  11.3658730  64.4896590  19.9476060  15.0664380
  64.4285480  20.5397890  15.8159790  65.4296970  19.8402020  14.9214640
  67.1271150  19.6046120  14.7056670  67.7411560  19.9225410  14.0437750
  67.6720710  19.1194710  15.3252530  57.6492410  18.2840380  14.8195730
  58.1975400  18.1028430  14.0561840  57.7147720  17.4934490  15.3552040
  58.4224170  34.8746030  12.8295930  57.8284490  34.7430730  13.5685970
  58.4148010  34.0384170  12.3638030  67.8679190  18.1678260  11.0325960
  66.9939030  18.5013370  10.8298890  67.7589940  17.6951440  11.8577830
  68.7751170  20.3749130  12.4167680  68.4464530  19.5600890  12.0369410
  69.7233470  20.3318940  12.2933370  58.0536400  32.2404410  11.7803970
  57.3270460  31.6209700  11.7129920  58.1145550  32.6345020  10.9102050
  61.6581500  34.4549410   8.5653380  62.1746520  33.8436770   8.0401640
  62.3078880  34.9578190   9.0564390  64.3977000  35.3457900   9.3922360
  64.6854810  35.0912200   8.5155370  64.9100220  34.7935260   9.9827930
  65.6154010  19.0848100   9.9718870  64.8325800  19.5593600  10.2515630
  65.3216940  18.1802930   9.8632050  70.1675080  19.7871200   8.0167960
  70.6083170  19.7316300   7.1689560  69.8982670  20.7029210   8.0878140
  56.3366400  35.5578800   4.9900730  56.1688440  34.9249480   5.6882620
  55.4700910  35.7638200   4.6394920  56.9594420  19.3895580   2.4932590
  57.7173780  19.5024460   1.9196620  56.4971590  20.2264780   2.4476020
  63.5008230  21.5034850   5.4834900  62.6882740  21.1291740   5.1430780
  64.0049870  20.7479930   5.7856090  68.0033210  18.1677300   6.7217970
  68.6062580  18.7397510   7.1966490  67.2626200  18.7316740   6.4991870
  57.9429100  34.2512030   2.4350870  57.4176720  34.6320060   1.7312830
  57.8673680  34.8762800   3.1560580  61.5257410  19.6534770   4.0879950
  60.8960150  18.9522080   4.2550080  60.9862550  20.4138900   3.8713110
  64.4649360  36.2674000  16.7590560  65.3916670  36.0318270  16.8026520
  64.4499790  37.0946000  16.2776590  61.6512970  18.9318750  16.5232440
  61.3697240  19.4352350  15.7593260  62.0332670  18.1340500  16.1574570
  68.2528430  18.3472330  17.1012910  68.1393880  18.6666940  17.9964430
  69.0698170  18.7484840  16.8050190  67.1586580   7.5921310  62.5621610
  67.0780630   6.6775920  62.2913320  66.7451000   8.0888380  61.8561320
  65.2904620   9.3700330  64.4430880  64.5146720   8.8900770  64.7329450
  65.9417550   8.6905980  64.2687040  59.3070450   9.6820140  65.3206640
  58.4755330   9.4268850  65.7203150  59.9151430   9.7530910  66.0564560
  69.3112050  13.7760520  63.2230010  68.8493580  13.0047760  63.5517180
  70.1237600  13.8026590  63.7282460  59.2871710  13.7160230  65.5164660
  59.5899750  12.8257970  65.3374880  60.0315300  14.2730450  65.2886910
  57.7162400   4.6422030  59.1049030  56.8279100   4.9838000  59.0028910
  58.0003590   4.4422350  58.2129860  55.6795410   7.2427680  64.9888730
  56.2511520   6.4749880  64.9892370  55.6796950   7.5416440  64.0795340
  65.5375360  16.0618530  62.8434000  64.9186800  16.5176030  62.2728440
  66.3927140  16.2169990  62.4423700  64.7313610  12.0457520  64.4501040
  64.6621890  11.1047460  64.2890170  65.4933470  12.1358930  65.0223610
  56.9220280   2.6512040  66.7757660  56.7423120   1.7537790  67.0560420
  56.5200360   3.1983910  67.4504610  65.7618780   4.8527900  64.6769970
  66.1383600   3.9799780  64.5643640  65.6638290   5.1886600  63.7860410
  59.8923790   3.2253530  60.1387410  59.9990540   4.1257260  60.4456170
  58.9816150   3.1771500  59.8482060  69.5442900   2.3478340  61.6098310
  70.3652520   1.8574910  61.6523790  69.5776980   2.9376000  62.3630150
  57.5406950   5.1472540  65.3840000  58.2217060   5.4110910  66.0027400
  57.2255000   4.3073410  65.7178010  61.7331520   6.1939900  64.4712590
  62.2409740   6.6920870  65.1117610  62.2644760   5.4175100  64.2951950
  66.4038710  10.9457770  60.2365910  65.7855980  11.4107220  59.6728630
  66.9161960  11.6385250  60.6535420  61.2670470  10.4733640  66.9149510
  60.9339850  11.1002560  67.5570580  61.4437150  10.9995520  66.1351180
  69.7804380   4.2878720  64.3825850  69.0759950   4.5763610  64.9628960
  70.1416540   5.0978830  64.0225410  59.6982950   2.5448420  66.7446460
  60.0399760   3.3890470  66.4500330  58.7598760   2.6932160  66.8611800
  60.4789570  12.4414440  68.7298690  61.0963570  13.1165520  68.4483140
  59.6182690  12.8502420  68.6386190  55.7721910  11.6314300  57.6105540
  55.3949890  12.1201400  56.8790440  56.0294980  12.3039580  58.2412070
  68.9325900  15.7497980  65.3598510  68.9453060  15.3460270  64.4920770
  68.3801120  16.5245270  65.2559940  70.2271320  12.4714200  60.4488680
  70.1167650  11.5288530  60.5738100  70.2239570  12.8329840  61.3351440
  68.3311340  10.6527820  66.6881120  68.7480130  10.4387930  65.8534580
  69.0551160  10.9100610  67.2589740  65.7691600   8.0979520  59.8051170
  64.8420880   8.0316900  60.0339640  65.9216420   9.0359650  59.6906410
  65.7560680   4.3696520  56.8018330  64.8164350   4.5310480  56.8870790
  66.0743940   5.0882200  56.2554320  69.7988890   9.6599820  60.3086420
  69.1801310   9.3219370  59.6612720  69.7813340   9.0159580  61.0165610
  69.2415450   5.8384360  67.7252230  68.8286630   6.6638070  67.9792220
  68.5091400   5.2529400  67.5328590  61.3748240   8.6244260  62.5870900
  60.9705240   7.9121510  62.0916800  61.4611360   8.2797500  63.4758940
  61.8429940  12.3111820  64.7510110  61.5458230  11.7057290  64.0717890
  62.7929760  12.3489130  64.6399470  60.0876860   5.3987470  66.3669940
  60.6391450   5.5082810  65.5923190  60.6020370   5.7725070  67.0825170
  69.9315550  15.8843690  68.4133210  69.4546110  16.6915880  68.2205820
  69.2477340  15.2322020  68.5659420  67.9753590   8.8986630  57.3159170
  68.4146870   8.0609060  57.1696990  68.6882010   9.5316030  57.4023310
  66.0848970  13.8382700  61.2840410  66.5244880  14.5807030  60.8695800
  66.0235860  14.0809270  62.2079370  58.0752870   7.5189240  60.0877550
  57.9550470   8.2451330  59.4758820  57.7653760   6.7492150  59.6105460
  55.7138240  10.6904380  65.8946190  55.7918660  10.8253150  64.9501910
  56.3279920   9.9820270  66.0874310  56.9585870  12.3904570  62.3052370
  56.5513950  12.5319160  61.4505970  57.8498880  12.1064730  62.1023580
  66.7764750  16.5396480  69.2119420  67.2909420  16.4504490  70.0141850
  65.9333830  16.8856180  69.5047330  68.7519150  16.8251820  58.6403420
  68.5920290  16.5354760  59.5385250  68.5865860  16.0491950  58.1048650
  61.2307530  16.6050350  60.4175040  61.0550010  15.6885890  60.2042840
  60.3763270  16.9637640  60.6572840  68.4545280  14.3339380  57.2001420
  67.7610440  14.3316670  56.5403700  69.1968140  13.9098700  56.7695590
  68.0195210  15.9602090  61.2749910  68.4752160  15.1791470  61.5888530
  68.3587730  16.6708910  61.8191090  55.7697760  11.7318550  68.4340650
  55.9328800  11.2623910  67.6160020  56.2350210  11.2242110  69.0989490
  64.8286340   3.7292830  69.0736540  64.3665710   3.9375850  69.8856480
  64.4264450   2.9152180  68.7707210  60.3330750   5.9857880  61.1982470
  60.1071670   5.7695050  62.1029090  59.5523280   6.4186340  60.8528440
  67.5628510   5.9921250  59.7973120  66.9637400   6.7157050  59.6136740
  68.1108120   5.9298030  59.0149570  66.1693380   4.6284790  61.8276400
  66.5622950   4.9456990  61.0145090  66.5310230   3.7496670  61.9420920
  57.9040500   3.2957130  70.0176520  57.5103890   4.1432340  70.2249300
  57.2158900   2.6583500  70.2085160  55.3927780   5.1605710  55.2609320
  55.3102450   6.1036470  55.4024310  55.0410840   5.0180620  54.3821670
  66.7548520   7.2190540  65.9227180  66.0229640   7.7277350  66.2717280
  66.3572860   6.4020520  65.6215960  63.1925910   3.8944740  64.3279670
  63.1961970   3.4534690  63.4784210  64.0877030   4.2162070  64.4351490
  59.0428290   3.7771230  63.2873880  58.7028340   4.2546460  64.0440930
  58.2805610   3.3236350  62.9274980  63.2546060   4.8956820  57.3186430
  63.3758880   4.8543300  58.2672250  62.8694570   5.7580970  57.1633160
  67.2174430   2.6724220  65.3350120  67.2347170   3.1232870  66.1791970
  66.9690010   1.7729860  65.5483560  62.2667560   7.2057960  56.7169730
  61.6984460   6.7576210  56.0905640  62.9756560   7.5650740  56.1834880
  63.4933880   7.9546520  66.0745080  63.8604010   7.4805090  66.8206420
  63.3038940   8.8288090  66.4153420  56.3574370   2.6990210  62.2038550
  56.0721290   2.3345880  63.0417170  56.2953230   1.9670670  61.5901690
  61.2833250   6.9955160  68.3929290  60.9790320   7.8747140  68.6179650
  62.2379710   7.0554950  68.4286730  59.8115040  11.2016150  58.9896140
  59.0377300  10.6613770  58.8294860  60.5409670  10.6822760  58.6513900
  68.7461350   5.9639120  57.2214080  69.6340970   6.2756350  57.0465420
  68.7166440   5.0911370  56.8294660  59.8552440  10.8696530  62.6274950
  60.3731110  10.0664790  62.5731840  59.4036460  10.8075670  63.4691780
  64.7421940  12.1362810  57.9002250  65.0837640  12.8805040  57.4045570
  63.9134650  12.4493930  58.2627080  57.3396980   7.8357900  69.5400650
  56.9811920   8.5011750  70.1273990  57.0451540   7.0041450  69.9113270
  67.6249350  11.4578650  63.2647760  67.9773170  10.8606780  62.6049130
  66.7411680  11.1322880  63.4356010  63.7112630  12.2176340  60.6718170
  64.3983760  12.7645550  61.0525760  62.9245050  12.7617070  60.7067780
  55.8505030   7.8349160  56.1635250  56.7199880   8.1173960  56.4471170
  55.3595350   8.6485030  56.0484060  63.0139840   9.2222370  60.2843530
  63.4702620  10.0327620  60.5103720  62.6628050   8.9045510  61.1162020
  65.3172450  14.7328710  67.5135830  65.9614670  14.9388090  68.1909250
  65.6801890  13.9717110  67.0606680  66.5904530  12.7361060  66.2313280
  67.2326760  12.0354220  66.3445450  67.1153880  13.5159500  66.0510170
  70.4360250  13.0209680  55.9552420  70.2097830  12.3040120  56.5477060
  70.0456450  12.7722120  55.1174170  68.3642150  13.5355960  69.4349340
  68.6998390  14.1222650  70.1127260  67.4442490  13.4048670  69.6647130
  56.2176280  17.0476540  56.7296880  56.5773920  17.6465880  56.0754150
  56.0768620  17.5936430  57.5031910  70.0176500  10.9381620  57.6166580
  69.7298200  11.3994310  58.4044460  70.8128670  10.4779390  57.8850800
  62.2344900  14.4307740  57.5470550  62.2255000  15.1637430  56.9315060
  61.3143260  14.1839320  57.6397510  57.8351540   9.6522630  58.2917310
  57.2279490  10.3921530  58.3012610  58.3100890   9.7421990  57.4655510
  67.4084330   3.8173450  67.9674200  67.7765150   2.9968660  68.2953770
  66.5482530   3.8775340  68.3829850  70.7746360   2.7730390  58.7761760
  70.1459520   2.8776060  58.0619990  70.2798280   2.9927170  59.5655640
  65.2204500  14.4935980  56.2095740  65.3216480  14.2899970  55.2797720
  64.3206240  14.2394260  56.4143520  62.7430390   5.0516340  60.1919640
  62.0346540   5.5202680  60.6333250  63.0274870   4.3938350  60.8264830
  64.3686320   6.4713040  68.1912170  64.8671570   6.9458860  68.8564020
  64.5109270   5.5476560  68.3982200  66.7745820   1.7767000  61.6315430
  66.6513600   1.7953130  60.6824940  67.7230380   1.8245940  61.7513830
  63.8622610  17.0122300  60.9043410  64.1164110  16.9743690  59.9822780
  62.9135090  16.8855630  60.8971660  60.9465410   3.3601420  57.5670350
  61.7955940   3.7971570  57.5010540  60.5796680   3.6721680  58.3942410
  69.8675190   7.9314180  62.4801920  68.9265330   7.9464410  62.6549610
  70.1819260   7.1450140  62.9262220  59.8456830   9.6133780  56.0405880
  60.6120100   9.5015140  56.6031310  59.9231520   8.9171750  55.3882650
  58.5403590   7.0458850  56.7238770  58.6207180   6.0986360  56.8356170
  59.4323340   7.3765730  56.8299430  59.3418300  17.1954240  63.8273310
  60.0780780  16.6469700  64.0981880  59.7259220  18.0610250  63.6879300
  56.2263780  13.2627810  59.7014820  55.3003560  13.5048950  59.6920230
  56.6920210  14.0902070  59.5799570  62.4520610  16.3684550  55.6498880
  63.2449220  16.6573380  55.1980670  61.9324960  15.9376720  54.9711360
  62.9698010  11.5887960  55.5141230  62.8648650  10.9740310  56.2402610
  62.8022230  11.0653850  54.7304240  66.2100740  10.6507990  56.1183220
  65.6610840  11.0977290  56.7625960  66.8320000  10.1457240  56.6420890
  61.8775860   9.6098910  58.0148520  62.2992280   9.4438780  58.8579910
  62.0026700   8.7999140  57.5203660  64.3903500   8.6336520  55.2625620
  64.9109160   7.9185540  54.8966770  65.0371900   9.2722390  55.5626130
  63.6996570  10.0085400  68.5556620  64.1184680  10.8518130  68.3832860
  62.7805200  10.1457440  68.3263400  68.3748370   8.2938770  68.5156970
  67.8483590   8.8181390  67.9122110  68.7179710   8.9266160  69.1466700
  60.7734760   5.6832140  54.9606680  60.5723820   4.8199500  55.3220020
  60.6026810   5.5965500  54.0228280  61.5503990  16.3138410  69.6714350
  61.0125080  17.0384470  69.3523050  61.8037950  15.8368750  68.8811690
  59.5717560   2.7832760  54.9484560  59.8743460   2.7900190  54.0403710
  60.3112150   2.4330620  55.4452220  64.4066200  17.5489620  69.9301000
  64.3324900  18.4524760  70.2373370  63.5045040  17.2301520  69.9023070
  64.9551530  16.7148130  57.5527360  65.8502320  17.0533100  57.5746120
  64.9869160  15.9927540  56.9251640  58.5947690  12.0875180  55.7814360
  59.0322560  12.6304850  56.4371940  59.0795420  11.2622130  55.7910700
  55.8093490  14.8764210  63.2334620  56.1396500  14.0085270  63.0013260
  56.2384490  15.0822730  64.0639580  60.4055410  13.2073220  60.8936590
  60.1050950  13.0838190  61.7940500  60.2992900  12.3481810  60.4852320
  56.2983700  15.7434800  65.9716250  55.8614690  15.9235600  66.8040400
  56.8661380  16.5009420  65.8297970  56.1308130   8.2555030  62.3305130
  55.4756970   7.9866670  61.6864830  56.9686080   8.1459510  61.8807110
  69.0798570   3.0496320  56.5523620  69.4983450   2.8627300  55.7120280
  68.7734630   2.1975370  56.8626550  57.1684060   8.6407600  66.8708470
  57.5357100   8.5535000  67.7504490  56.5994880   7.8774150  66.7715330
  55.3446210   5.4653960  58.2730460  54.4410290   5.7284160  58.0982120
  55.8286830   5.7365130  57.4930420  57.8873420   4.5219500  56.1824840
  58.5965120   4.1002720  55.6972120  57.1713360   4.5894730  55.5508190
  62.2842170  14.7099880  67.6338340  62.0433530  14.9774440  66.7468860
  63.2244810  14.8805610  67.6889200  58.4224170  16.1002540  69.1526400
  57.8284490  15.9687240  69.8916440  58.4148010  15.2640680  68.6868500
  58.0536400  13.4660920  68.1034440  57.3270460  12.8466210  68.0360390
  58.1145550  13.8601530  67.2332520  61.6581500  15.6805920  64.8883850
  62.1746520  15.0693280  64.3632110  62.3078880  16.1834700  65.3794860
  64.3977000  16.5714410  65.7152830  64.6854810  16.3168710  64.8385840
  64.9100220  16.0191770  66.3058400  56.3366400  16.7835310  61.3131200
  56.1688440  16.1505990  62.0113090  55.4700910  16.9894710  60.9625390
  63.5008230   2.7291360  61.8065370  62.6882740   2.3548250  61.4661250
  64.0049870   1.9736440  62.1086560  57.9429100  15.4768540  58.7581340
  57.4176720  15.8576570  58.0543300  57.8673680  16.1019310  59.4791050
  60.5422070  17.4250920  57.6330590  61.2740890  17.1410200  57.0854480
  60.8015740  17.1864200  58.5229970  59.7036860  13.5415650  57.6376920
  59.0745740  14.0100750  58.1862750  59.8184690  12.6964870  58.0723110
  67.1586580   7.5921310  43.7878120  67.0780630   6.6775920  43.5169830
  66.7451000   8.0888380  43.0817830  65.2904620   9.3700330  45.6687390
  64.5146720   8.8900770  45.9585960  65.9417550   8.6905980  45.4943550
  59.3070450   9.6820140  46.5463150  58.4755330   9.4268850  46.9459660
  59.9151430   9.7530910  47.2821070  69.3112050  13.7760520  44.4486520
  68.8493580  13.0047760  44.7773690  70.1237600  13.8026590  44.9538970
  59.2871710  13.7160230  46.7421170  59.5899750  12.8257970  46.5631390
  60.0315300  14.2730450  46.5143420  57.7162400   4.6422030  40.3305540
  56.8279100   4.9838000  40.2285420  58.0003590   4.4422350  39.4386370
  55.6795410   7.2427680  46.2145240  56.2511520   6.4749880  46.2148880
  55.6796950   7.5416440  45.3051850  65.5375360  16.0618530  44.0690510
  64.9186800  16.5176030  43.4984950  66.3927140  16.2169990  43.6680210
  64.7313610  12.0457520  45.6757550  64.6621890  11.1047460  45.5146680
  65.4933470  12.1358930  46.2480120  56.9220280   2.6512040  48.0014170
  56.7423120   1.7537790  48.2816930  56.5200360   3.1983910  48.6761120
  65.7618780   4.8527900  45.9026480  66.1383600   3.9799780  45.7900150
  65.6638290   5.1886600  45.0116920  59.8923790   3.2253530  41.3643920
  59.9990540   4.1257260  41.6712680  58.9816150   3.1771500  41.0738570
  69.5442900   2.3478340  42.8354820  70.3652520   1.8574910  42.8780300
  69.5776980   2.9376000  43.5886660  57.5406950   5.1472540  46.6096510
  58.2217060   5.4110910  47.2283910  57.2255000   4.3073410  46.9434520
  61.7331520   6.1939900  45.6969100  62.2409740   6.6920870  46.3374120
  62.2644760   5.4175100  45.5208460  66.4038710  10.9457770  41.4622420
  65.7855980  11.4107220  40.8985140  66.9161960  11.6385250  41.8791930
  61.2670470  10.4733640  48.1406020  60.9339850  11.1002560  48.7827090
  61.4437150  10.9995520  47.3607690  69.7804380   4.2878720  45.6082360
  69.0759950   4.5763610  46.1885470  70.1416540   5.0978830  45.2481920
  59.6982950   2.5448420  47.9702970  60.0399760   3.3890470  47.6756840
  58.7598760   2.6932160  48.0868310  60.4789570  12.4414440  49.9555200
  61.0963570  13.1165520  49.6739650  59.6182690  12.8502420  49.8642700
  55.7721910  11.6314300  38.8362050  55.3949890  12.1201400  38.1046950
  56.0294980  12.3039580  39.4668580  68.9325900  15.7497980  46.5855020
  68.9453060  15.3460270  45.7177280  68.3801120  16.5245270  46.4816450
  70.2271320  12.4714200  41.6745190  70.1167650  11.5288530  41.7994610
  70.2239570  12.8329840  42.5607950  68.3311340  10.6527820  47.9137630
  68.7480130  10.4387930  47.0791090  69.0551160  10.9100610  48.4846250
  65.7691600   8.0979520  41.0307680  64.8420880   8.0316900  41.2596150
  65.9216420   9.0359650  40.9162920  65.7560680   4.3696520  38.0274840
  64.8164350   4.5310480  38.1127300  66.0743940   5.0882200  37.4810830
  69.7988890   9.6599820  41.5342930  69.1801310   9.3219370  40.8869230
  69.7813340   9.0159580  42.2422120  69.2415450   5.8384360  48.9508740
  68.8286630   6.6638070  49.2048730  68.5091400   5.2529400  48.7585100
  61.3748240   8.6244260  43.8127410  60.9705240   7.9121510  43.3173310
  61.4611360   8.2797500  44.7015450  61.8429940  12.3111820  45.9766620
  61.5458230  11.7057290  45.2974400  62.7929760  12.3489130  45.8655980
  60.0876860   5.3987470  47.5926450  60.6391450   5.5082810  46.8179700
  60.6020370   5.7725070  48.3081680  69.9315550  15.8843690  49.6389720
  69.4546110  16.6915880  49.4462330  69.2477340  15.2322020  49.7915930
  60.9348370  12.0493510  52.6274420  60.0376900  12.2733480  52.8747820
  60.9601240  12.1728450  51.6785820  67.9753590   8.8986630  38.5415680
  68.4146870   8.0609060  38.3953500  68.6882010   9.5316030  38.6279820
  59.7619590   8.9206830  51.2031790  59.6227360   9.7929630  51.5719190
  58.8800950   8.5779640  51.0579730  66.0848970  13.8382700  42.5096920
  66.5244880  14.5807030  42.0952310  66.0235860  14.0809270  43.4335880
  61.5599940  14.8628530  53.4116940  61.5315370  15.2671480  52.5445370
  61.3964910  13.9338890  53.2488540  58.0752870   7.5189240  41.3134060
  57.9550470   8.2451330  40.7015330  57.7653760   6.7492150  40.8361970
  55.7138240  10.6904380  47.1202700  55.7918660  10.8253150  46.1758420
  56.3279920   9.9820270  47.3130820  56.9585870  12.3904570  43.5308880
  56.5513950  12.5319160  42.6762480  57.8498880  12.1064730  43.3280090
  66.7764750  16.5396480  50.4375930  67.2909420  16.4504490  51.2398360
  65.9333830  16.8856180  50.7303840  68.7519150  16.8251820  39.8659930
  68.5920290  16.5354760  40.7641760  68.5865860  16.0491950  39.3305160
  61.2307530  16.6050350  41.6431550  61.0550010  15.6885890  41.4299350
  60.3763270  16.9637640  41.8829350  68.4545280  14.3339380  38.4257930
  67.7610440  14.3316670  37.7660210  69.1968140  13.9098700  37.9952100
  68.0195210  15.9602090  42.5006420  68.4752160  15.1791470  42.8145040
  68.3587730  16.6708910  43.0447600  55.7697760  11.7318550  49.6597160
  55.9328800  11.2623910  48.8416530  56.2350210  11.2242110  50.3246000
  64.8286340   3.7292830  50.2993050  64.3665710   3.9375850  51.1112990
  64.4264450   2.9152180  49.9963720  69.8290850   4.9501780  51.4289710
  68.9784440   4.6507530  51.7498780  69.6692640   5.1943790  50.5173530
  66.9240560   6.4503530  53.5288500  67.2493970   5.6167280  53.1890730
  67.7120890   6.9732050  53.6766830  60.3330750   5.9857880  42.4238980
  60.1071670   5.7695050  43.3285600  59.5523280   6.4186340  42.0784950
  67.5628510   5.9921250  41.0229630  66.9637400   6.7157050  40.8393250
  68.1108120   5.9298030  40.2406080  62.7729960   6.8843460  53.0899250
  62.6773560   5.9438190  52.9399650  63.6161940   7.1058530  52.6947320
  66.1693380   4.6284790  43.0532910  66.5622950   4.9456990  42.2401600
  66.5310230   3.7496670  43.1677430  57.9040500   3.2957130  51.2433030
  57.5103890   4.1432340  51.4505810  57.2158900   2.6583500  51.4341670
  64.4785550   3.3792100  54.3129770  63.7883870   3.1864300  54.9475860
  65.2217850   3.6626740  54.8454070  55.3927780   5.1605710  36.4865830
  55.3102450   6.1036470  36.6280820  55.0410840   5.0180620  35.6078180
  66.7548520   7.2190540  47.1483690  66.0229640   7.7277350  47.4973790
  66.3572860   6.4020520  46.8472470  63.1925910   3.8944740  45.5536180
  63.1961970   3.4534690  44.7040720  64.0877030   4.2162070  45.6608000
  59.0428290   3.7771230  44.5130390  58.7028340   4.2546460  45.2697440
  58.2805610   3.3236350  44.1531490  63.2546060   4.8956820  38.5442940
  63.3758880   4.8543300  39.4928760  62.8694570   5.7580970  38.3889670
  67.2174430   2.6724220  46.5606630  67.2347170   3.1232870  47.4048480
  66.9690010   1.7729860  46.7740070  62.2667560   7.2057960  37.9426240
  61.6984460   6.7576210  37.3162150  62.9756560   7.5650740  37.4091390
  57.3436740  11.1069980  51.8192970  56.9591530  10.4663650  52.4175930
  57.6548930  11.8106100  52.3887700  63.4933880   7.9546520  47.3001590
  63.8604010   7.4805090  48.0462930  63.3038940   8.8288090  47.6409930
  56.3574370   2.6990210  43.4295060  56.0721290   2.3345880  44.2673680
  56.2953230   1.9670670  42.8158200  61.2833250   6.9955160  49.6185800
  60.9790320   7.8747140  49.8436160  62.2379710   7.0554950  49.6543240
  59.8115040  11.2016150  40.2152650  59.0377300  10.6613770  40.0551370
  60.5409670  10.6822760  39.8770410  65.9521820  10.2690570  51.8948040
  65.8859130   9.3486240  51.6405630  65.3226960  10.3666010  52.6092680
  68.7461350   5.9639120  38.4470590  69.6340970   6.2756350  38.2721930
  68.7166440   5.0911370  38.0551170  59.8552440  10.8696530  43.8531460
  60.3731110  10.0664790  43.7988350  59.4036460  10.8075670  44.6948290
  64.7421940  12.1362810  39.1258760  65.0837640  12.8805040  38.6302080
  63.9134650  12.4493930  39.4883590  57.3396980   7.8357900  50.7657160
  56.9811920   8.5011750  51.3530500  57.0451540   7.0041450  51.1369780
  60.5410100   8.2942140  53.6496710  60.2410240   8.4399320  52.7524530
  61.3121340   7.7347430  53.5570100  65.8838550  13.0911140  51.6451840
  65.8983090  12.1592100  51.4270750  65.1763650  13.1770900  52.2841610
  67.6249350  11.4578650  44.4904270  67.9773170  10.8606780  43.8305640
  66.7411680  11.1322880  44.6612520  63.7112630  12.2176340  41.8974680
  64.3983760  12.7645550  42.2782270  62.9245050  12.7617070  41.9324290
  55.8505030   7.8349160  37.3891760  56.7199880   8.1173960  37.6727680
  55.3595350   8.6485030  37.2740570  63.0139840   9.2222370  41.5100040
  63.4702620  10.0327620  41.7360230  62.6628050   8.9045510  42.3418530
  65.3172450  14.7328710  48.7392340  65.9614670  14.9388090  49.4165760
  65.6801890  13.9717110  48.2863190  66.5904530  12.7361060  47.4569790
  67.2326760  12.0354220  47.5701960  67.1153880  13.5159500  47.2766680
  70.4360250  13.0209680  37.1808930  70.2097830  12.3040120  37.7733570
  70.0456450  12.7722120  36.3430680  68.3642150  13.5355960  50.6605850
  68.6998390  14.1222650  51.3383770  67.4442490  13.4048670  50.8903640
  56.2176280  17.0476540  37.9553390  56.5773920  17.6465880  37.3010660
  56.0768620  17.5936430  38.7288420  70.0176500  10.9381620  38.8423090
  69.7298200  11.3994310  39.6300970  70.8128670  10.4779390  39.1107310
  56.2018140  15.3131400  52.4295790  56.3109260  14.3726140  52.2891180
  55.5498700  15.5786150  51.7809520  64.1930730  13.5847290  53.8293910
  63.8727600  12.8656530  54.3739600  63.5189090  14.2602360  53.9029970
  62.2344900  14.4307740  38.7727060  62.2255000  15.1637430  38.1571570
  61.3143260  14.1839320  38.8654020  57.8351540   9.6522630  39.5173820
  57.2279490  10.3921530  39.5269120  58.3100890   9.7421990  38.6912020
  67.4084330   3.8173450  49.1930710  67.7765150   2.9968660  49.5210280
  66.5482530   3.8775340  49.6086360  70.7746360   2.7730390  40.0018270
  70.1459520   2.8776060  39.2876500  70.2798280   2.9927170  40.7912150
  65.2204500  14.4935980  37.4352250  65.3216480  14.2899970  36.5054230
  64.3206240  14.2394260  37.6400030  62.7430390   5.0516340  41.4176150
  62.0346540   5.5202680  41.8589760  63.0274870   4.3938350  42.0521340
  64.3686320   6.4713040  49.4168680  64.8671570   6.9458860  50.0820530
  64.5109270   5.5476560  49.6238710  66.7745820   1.7767000  42.8571940
  66.6513600   1.7953130  41.9081450  67.7230380   1.8245940  42.9770340
  63.8622610  17.0122300  42.1299920  64.1164110  16.9743690  41.2079290
  62.9135090  16.8855630  42.1228170  60.9465410   3.3601420  38.7926860
  61.7955940   3.7971570  38.7267050  60.5796680   3.6721680  39.6198920
  69.8675190   7.9314180  43.7058430  68.9265330   7.9464410  43.8806120
  70.1819260   7.1450140  44.1518730  59.8456830   9.6133780  37.2662390
  60.6120100   9.5015140  37.8287820  59.9231520   8.9171750  36.6139160
  58.5403590   7.0458850  37.9495280  58.6207180   6.0986360  38.0612680
  59.4323340   7.3765730  38.0555940  59.3418300  17.1954240  45.0529820
  60.0780780  16.6469700  45.3238390  59.7259220  18.0610250  44.9135810
  56.2263780  13.2627810  40.9271330  55.3003560  13.5048950  40.9176740
  56.6920210  14.0902070  40.8056080  58.3476580  16.3800310  54.2415400
  59.1489310  16.7012360  54.6550800  57.8328400  16.0195890  54.9635310
  62.4520610  16.3684550  36.8755390  63.2449220  16.6573380  36.4237180
  61.9324960  15.9376720  36.1967870  67.1841210  12.4880180  54.1890810
  66.5779370  12.5111780  53.4486560  66.8795320  11.7563220  54.7258060
  68.6141580  16.2160470  52.8000220  69.5663330  16.1318490  52.7500460
  68.4669800  16.8802180  53.4734010  56.0674390   8.8673770  53.1851450
  56.5713410   8.2881050  53.7567680  55.3281810   9.1514000  53.7227820
  62.9698010  11.5887960  36.7397740  62.8648650  10.9740310  37.4659120
  62.8022230  11.0653850  35.9560750  63.1212330  10.2744760  52.7186970
  62.3558000  10.8429760  52.6341640  63.3028290   9.9820970  51.8255200
  66.2100740  10.6507990  37.3439730  65.6610840  11.0977290  37.9882470
  66.8320000  10.1457240  37.8677400  70.2635680  12.0050090  53.2761990
  71.0045150  12.3425850  52.7729450  69.5008360  12.1742150  52.7231760
  58.0997470   7.0103360  54.0801520  58.1402810   6.7117230  54.9886750
  58.9542970   7.4110970  53.9209040  61.8775860   9.6098910  39.2405030
  62.2992280   9.4438780  40.0836420  62.0026700   8.7999140  38.7460170
  60.0403280   5.5895460  52.0476010  59.5099740   5.0986410  51.4199350
  60.7091350   6.0179660  51.5133940  64.3903500   8.6336520  36.4882130
  64.9109160   7.9185540  36.1223280  65.0371900   9.2722390  36.7882640
  68.9381340  10.0564920  51.8117200  69.3522360  10.2110000  52.6607620
  68.0032340  10.1820140  51.9742980  69.4103510   7.3961080  53.8156350
  69.9924280   6.6413400  53.7276830  69.5865280   7.9268520  53.0387830
  60.5275580   2.5557830  52.1273300  60.4332450   1.9378580  51.4024170
  59.9472970   3.2824120  51.9003210  63.6996570  10.0085400  49.7813130
  64.1184680  10.8518130  49.6089370  62.7805200  10.1457440  49.5519910
  66.0360470   7.7401580  51.1650970  66.1556680   7.1442720  51.9045810
  66.8954470   7.7771270  50.7452270  68.3748370   8.2938770  49.7413480
  67.8483590   8.8181390  49.1378620  68.7179710   8.9266160  50.3723210
  60.7734760   5.6832140  36.1863190  60.5723820   4.8199500  36.5476530
  60.6026810   5.5965500  35.2484790  61.5503990  16.3138410  50.8970860
  61.0125080  17.0384470  50.5779560  61.8037950  15.8368750  50.1068200
  62.8029240   4.2822930  52.4226790  63.3928930   3.9738780  53.1104610
  61.9849480   3.8102680  52.5786690  67.6222670   3.8988740  52.6559810
  66.9338190   3.2370280  52.5909800  68.3428690   3.4527010  53.1008270
  59.5717560   2.7832760  36.1741070  59.8743460   2.7900190  35.2660220
  60.3112150   2.4330620  36.6708730  64.4066200  17.5489620  51.1557510
  64.3324900  18.4524760  51.4629880  63.5045040  17.2301520  51.1279580
  64.9551530  16.7148130  38.7783870  65.8502320  17.0533100  38.8002630
  64.9869160  15.9927540  38.1508150  58.5947690  12.0875180  37.0070870
  59.0322560  12.6304850  37.6628450  59.0795420  11.2622130  37.0167210
  55.8093490  14.8764210  44.4591130  56.1396500  14.0085270  44.2269770
  56.2384490  15.0822730  45.2896090  60.4055410  13.2073220  42.1193100
  60.1050950  13.0838190  43.0197010  60.2992900  12.3481810  41.7108830
  56.2983700  15.7434800  47.1972760  55.8614690  15.9235600  48.0296910
  56.8661380  16.5009420  47.0554480  56.1308130   8.2555030  43.5561640
  55.4756970   7.9866670  42.9121340  56.9686080   8.1459510  43.1063620
  69.0798570   3.0496320  37.7780130  69.4983450   2.8627300  36.9376790
  68.7734630   2.1975370  38.0883060  57.1684060   8.6407600  48.0964980
  57.5357100   8.5535000  48.9761000  56.5994880   7.8774150  47.9971840
  56.7200060   5.5516690  52.0023400  55.8256110   5.5183450  52.3417110
  57.2597610   5.7503480  52.7674650  55.3446210   5.4653960  39.4986970
  54.4410290   5.7284160  39.3238630  55.8286830   5.7365130  38.7186930
  57.8873420   4.5219500  37.4081350  58.5965120   4.1002720  36.9228630
  57.1713360   4.5894730  36.7764700  58.5836140  13.1540290  53.2585130
  58.5405770  12.7833200  54.1399590  58.7147150  14.0917860  53.3986950
  62.2842170  14.7099880  48.8594850  62.0433530  14.9774440  47.9725370
  63.2244810  14.8805610  48.9145710  58.4224170  16.1002540  50.3782910
  57.8284490  15.9687240  51.1172950  58.4148010  15.2640680  49.9125010
  58.0536400  13.4660920  49.3290950  57.3270460  12.8466210  49.2616900
  58.1145550  13.8601530  48.4589030  61.6581500  15.6805920  46.1140360
  62.1746520  15.0693280  45.5888620  62.3078880  16.1834700  46.6051370
  64.3977000  16.5714410  46.9409340  64.6854810  16.3168710  46.0642350
  64.9100220  16.0191770  47.5314910  56.3366400  16.7835310  42.5387710
  56.1688440  16.1505990  43.2369600  55.4700910  16.9894710  42.1881900
  63.5008230   2.7291360  43.0321880  62.6882740   2.3548250  42.6917760
  64.0049870   1.9736440  43.3343070  57.9429100  15.4768540  39.9837850
  57.4176720  15.8576570  39.2799810  57.8673680  16.1019310  40.7047560
  64.4649360  17.4930510  54.3077540  65.3916670  17.2574780  54.3513500
  64.4499790  18.3202510  53.8263570  60.5422070  17.4250920  38.8587100
  61.2740890  17.1410200  38.3110990  60.8015740  17.1864200  39.7486480
  59.7036860  13.5415650  38.8633430  59.0745740  14.0100750  39.4119260
  59.8184690  12.6964870  39.2979620  67.1586580   7.5921310  25.0134630
  67.0780630   6.6775920  24.7426340  66.7451000   8.0888380  24.3074340
  65.2904620   9.3700330  26.8943900  64.5146720   8.8900770  27.1842470
  65.9417550   8.6905980  26.7200060  59.3070450   9.6820140  27.7719660
  58.4755330   9.4268850  28.1716170  59.9151430   9.7530910  28.5077580
  69.3112050  13.7760520  25.6743030  68.8493580  13.0047760  26.0030200
  70.1237600  13.8026590  26.1795480  59.2871710  13.7160230  27.9677680
  59.5899750  12.8257970  27.7887900  60.0315300  14.2730450  27.7399930
  57.7162400   4.6422030  21.5562050  56.8279100   4.9838000  21.4541930
  58.0003590   4.4422350  20.6642880  55.6795410   7.2427680  27.4401750
  56.2511520   6.4749880  27.4405390  55.6796950   7.5416440  26.5308360
  65.5375360  16.0618530  25.2947020  64.9186800  16.5176030  24.7241460
  66.3927140  16.2169990  24.8936720  64.7313610  12.0457520  26.9014060
  64.6621890  11.1047460  26.7403190  65.4933470  12.1358930  27.4736630
  56.9220280   2.6512040  29.2270680  56.7423120   1.7537790  29.5073440
  56.5200360   3.1983910  29.9017630  65.7618780   4.8527900  27.1282990
  66.1383600   3.9799780  27.0156660  65.6638290   5.1886600  26.2373430
  59.8923790   3.2253530  22.5900430  59.9990540   4.1257260  22.8969190
  58.9816150   3.1771500  22.2995080  69.5442900   2.3478340  24.0611330
  70.3652520   1.8574910  24.1036810  69.5776980   2.9376000  24.8143170
  57.5406950   5.1472540  27.8353020  58.2217060   5.4110910  28.4540420
  57.2255000   4.3073410  28.1691030  61.7331520   6.1939900  26.9225610
  62.2409740   6.6920870  27.5630630  62.2644760   5.4175100  26.7464970
  66.4038710  10.9457770  22.6878930  65.7855980  11.4107220  22.1241650
  66.9161960  11.6385250  23.1048440  61.2670470  10.4733640  29.3662530
  60.9339850  11.1002560  30.0083600  61.4437150  10.9995520  28.5864200
  69.7804380   4.2878720  26.8338870  69.0759950   4.5763610  27.4141980
  70.1416540   5.0978830  26.4738430  59.6982950   2.5448420  29.1959480
  60.0399760   3.3890470  28.9013350  58.7598760   2.6932160  29.3124820
  60.4789570  12.4414440  31.1811710  61.0963570  13.1165520  30.8996160
  59.6182690  12.8502420  31.0899210  55.7721910  11.6314300  20.0618560
  55.3949890  12.1201400  19.3303460  56.0294980  12.3039580  20.6925090
  68.9325900  15.7497980  27.8111530  68.9453060  15.3460270  26.9433790
  68.3801120  16.5245270  27.7072960  70.2271320  12.4714200  22.9001700
  70.1167650  11.5288530  23.0251120  70.2239570  12.8329840  23.7864460
  68.3311340  10.6527820  29.1394140  68.7480130  10.4387930  28.3047600
  69.0551160  10.9100610  29.7102760  65.7691600   8.0979520  22.2564190
  64.8420880   8.0316900  22.4852660  65.9216420   9.0359650  22.1419430
  65.7560680   4.3696520  19.2531350  64.8164350   4.5310480  19.3383810
  66.0743940   5.0882200  18.7067340  69.7988890   9.6599820  22.7599440
  69.1801310   9.3219370  22.1125740  69.7813340   9.0159580  23.4678630
  69.2415450   5.8384360  30.1765250  68.8286630   6.6638070  30.4305240
  68.5091400   5.2529400  29.9841610  61.3748240   8.6244260  25.0383920
  60.9705240   7.9121510  24.5429820  61.4611360   8.2797500  25.9271960
  61.8429940  12.3111820  27.2023130  61.5458230  11.7057290  26.5230910
  62.7929760  12.3489130  27.0912490  60.0876860   5.3987470  28.8182960
  60.6391450   5.5082810  28.0436210  60.6020370   5.7725070  29.5338190
  69.9315550  15.8843690  30.8646230  69.4546110  16.6915880  30.6718840
  69.2477340  15.2322020  31.0172440  60.9348370  12.0493510  33.8530930
  60.0376900  12.2733480  34.1004330  60.9601240  12.1728450  32.9042330
  67.9753590   8.8986630  19.7672190  68.4146870   8.0609060  19.6210010
  68.6882010   9.5316030  19.8536330  59.7619590   8.9206830  32.4288300
  59.6227360   9.7929630  32.7975700  58.8800950   8.5779640  32.2836240
  66.0848970  13.8382700  23.7353430  66.5244880  14.5807030  23.3208820
  66.0235860  14.0809270  24.6592390  61.5599940  14.8628530  34.6373450
  61.5315370  15.2671480  33.7701880  61.3964910  13.9338890  34.4745050
  58.0752870   7.5189240  22.5390570  57.9550470   8.2451330  21.9271840
  57.7653760   6.7492150  22.0618480  55.7138240  10.6904380  28.3459210
  55.7918660  10.8253150  27.4014930  56.3279920   9.9820270  28.5387330
  56.9585870  12.3904570  24.7565390  56.5513950  12.5319160  23.9018990
  57.8498880  12.1064730  24.5536600  66.7764750  16.5396480  31.6632440
  67.2909420  16.4504490  32.4654870  65.9333830  16.8856180  31.9560350
  68.7519150  16.8251820  21.0916440  68.5920290  16.5354760  21.9898270
  68.5865860  16.0491950  20.5561670  61.2307530  16.6050350  22.8688060
  61.0550010  15.6885890  22.6555860  60.3763270  16.9637640  23.1085860
  68.4545280  14.3339380  19.6514440  67.7610440  14.3316670  18.9916720
  69.1968140  13.9098700  19.2208610  68.0195210  15.9602090  23.7262930
  68.4752160  15.1791470  24.0401550  68.3587730  16.6708910  24.2704110
  55.7697760  11.7318550  30.8853670  55.9328800  11.2623910  30.0673040
  56.2350210  11.2242110  31.5502510  64.8286340   3.7292830  31.5249560
  64.3665710   3.9375850  32.3369500  64.4264450   2.9152180  31.2220230
  69.8290850   4.9501780  32.6546220  68.9784440   4.6507530  32.9755290
  69.6692640   5.1943790  31.7430040  66.9240560   6.4503530  34.7545010
  67.2493970   5.6167280  34.4147240  67.7120890   6.9732050  34.9023340
  60.3330750   5.9857880  23.6495490  60.1071670   5.7695050  24.5542110
  59.5523280   6.4186340  23.3041460  67.5628510   5.9921250  22.2486140
  66.9637400   6.7157050  22.0649760  68.1108120   5.9298030  21.4662590
  62.7729960   6.8843460  34.3155760  62.6773560   5.9438190  34.1656160
  63.6161940   7.1058530  33.9203830  66.1693380   4.6284790  24.2789420
  66.5622950   4.9456990  23.4658110  66.5310230   3.7496670  24.3933940
  57.9040500   3.2957130  32.4689540  57.5103890   4.1432340  32.6762320
  57.2158900   2.6583500  32.6598180  64.4785550   3.3792100  35.5386280
  63.7883870   3.1864300  36.1732370  65.2217850   3.6626740  36.0710580
  55.3927780   5.1605710  17.7122340  55.3102450   6.1036470  17.8537330
  55.0410840   5.0180620  16.8334690  66.7548520   7.2190540  28.3740200
  66.0229640   7.7277350  28.7230300  66.3572860   6.4020520  28.0728980
  63.1925910   3.8944740  26.7792690  63.1961970   3.4534690  25.9297230
  64.0877030   4.2162070  26.8864510  59.0428290   3.7771230  25.7386900
  58.7028340   4.2546460  26.4953950  58.2805610   3.3236350  25.3788000
  63.2546060   4.8956820  19.7699450  63.3758880   4.8543300  20.7185270
  62.8694570   5.7580970  19.6146180  67.2174430   2.6724220  27.7863140
  67.2347170   3.1232870  28.6304990  66.9690010   1.7729860  27.9996580
  62.2667560   7.2057960  19.1682750  61.6984460   6.7576210  18.5418660
  62.9756560   7.5650740  18.6347900  57.3436740  11.1069980  33.0449480
  56.9591530  10.4663650  33.6432440  57.6548930  11.8106100  33.6144210
  63.4933880   7.9546520  28.5258100  63.8604010   7.4805090  29.2719440
  63.3038940   8.8288090  28.8666440  56.3574370   2.6990210  24.6551570
  56.0721290   2.3345880  25.4930190  56.2953230   1.9670670  24.0414710
  61.2833250   6.9955160  30.8442310  60.9790320   7.8747140  31.0692670
  62.2379710   7.0554950  30.8799750  59.8115040  11.2016150  21.4409160
  59.0377300  10.6613770  21.2807880  60.5409670  10.6822760  21.1026920
  65.9521820  10.2690570  33.1204550  65.8859130   9.3486240  32.8662140
  65.3226960  10.3666010  33.8349190  68.7461350   5.9639120  19.6727100
  69.6340970   6.2756350  19.4978440  68.7166440   5.0911370  19.2807680
  59.8552440  10.8696530  25.0787970  60.3731110  10.0664790  25.0244860
  59.4036460  10.8075670  25.9204800  64.7421940  12.1362810  20.3515270
  65.0837640  12.8805040  19.8558590  63.9134650  12.4493930  20.7140100
  57.3396980   7.8357900  31.9913670  56.9811920   8.5011750  32.5787010
  57.0451540   7.0041450  32.3626290  60.5410100   8.2942140  34.8753220
  60.2410240   8.4399320  33.9781040  61.3121340   7.7347430  34.7826610
  65.8838550  13.0911140  32.8708350  65.8983090  12.1592100  32.6527260
  65.1763650  13.1770900  33.5098120  67.6249350  11.4578650  25.7160780
  67.9773170  10.8606780  25.0562150  66.7411680  11.1322880  25.8869030
  63.7112630  12.2176340  23.1231190  64.3983760  12.7645550  23.5038780
  62.9245050  12.7617070  23.1580800  55.8505030   7.8349160  18.6148270
  56.7199880   8.1173960  18.8984190  55.3595350   8.6485030  18.4997080
  63.0139840   9.2222370  22.7356550  63.4702620  10.0327620  22.9616740
  62.6628050   8.9045510  23.5675040  65.3172450  14.7328710  29.9648850
  65.9614670  14.9388090  30.6422270  65.6801890  13.9717110  29.5119700
  66.5904530  12.7361060  28.6826300  67.2326760  12.0354220  28.7958470
  67.1153880  13.5159500  28.5023190  70.4360250  13.0209680  18.4065440
  70.2097830  12.3040120  18.9990080  70.0456450  12.7722120  17.5687190
  68.3642150  13.5355960  31.8862360  68.6998390  14.1222650  32.5640280
  67.4442490  13.4048670  32.1160150  56.2176280  17.0476540  19.1809900
  56.5773920  17.6465880  18.5267170  56.0768620  17.5936430  19.9544930
  70.0176500  10.9381620  20.0679600  69.7298200  11.3994310  20.8557480
  70.8128670  10.4779390  20.3363820  56.2018140  15.3131400  33.6552300
  56.3109260  14.3726140  33.5147690  55.5498700  15.5786150  33.0066030
  64.1930730  13.5847290  35.0550420  63.8727600  12.8656530  35.5996110
  63.5189090  14.2602360  35.1286480  62.2344900  14.4307740  19.9983570
  62.2255000  15.1637430  19.3828080  61.3143260  14.1839320  20.0910530
  57.8351540   9.6522630  20.7430330  57.2279490  10.3921530  20.7525630
  58.3100890   9.7421990  19.9168530  67.4084330   3.8173450  30.4187220
  67.7765150   2.9968660  30.7466790  66.5482530   3.8775340  30.8342870
  70.7746360   2.7730390  21.2274780  70.1459520   2.8776060  20.5133010
  70.2798280   2.9927170  22.0168660  65.2204500  14.4935980  18.6608760
  65.3216480  14.2899970  17.7310740  64.3206240  14.2394260  18.8656540
  62.7430390   5.0516340  22.6432660  62.0346540   5.5202680  23.0846270
  63.0274870   4.3938350  23.2777850  64.3686320   6.4713040  30.6425190
  64.8671570   6.9458860  31.3077040  64.5109270   5.5476560  30.8495220
  66.7745820   1.7767000  24.0828450  66.6513600   1.7953130  23.1337960
  67.7230380   1.8245940  24.2026850  63.8622610  17.0122300  23.3556430
  64.1164110  16.9743690  22.4335800  62.9135090  16.8855630  23.3484680
  60.9465410   3.3601420  20.0183370  61.7955940   3.7971570  19.9523560
  60.5796680   3.6721680  20.8455430  69.8675190   7.9314180  24.9314940
  68.9265330   7.9464410  25.1062630  70.1819260   7.1450140  25.3775240
  59.8456830   9.6133780  18.4918900  60.6120100   9.5015140  19.0544330
  59.9231520   8.9171750  17.8395670  58.5403590   7.0458850  19.1751790
  58.6207180   6.0986360  19.2869190  59.4323340   7.3765730  19.2812450
  59.3418300  17.1954240  26.2786330  60.0780780  16.6469700  26.5494900
  59.7259220  18.0610250  26.1392320  56.2263780  13.2627810  22.1527840
  55.3003560  13.5048950  22.1433250  56.6920210  14.0902070  22.0312590
  58.3476580  16.3800310  35.4671910  59.1489310  16.7012360  35.8807310
  57.8328400  16.0195890  36.1891820  62.4520610  16.3684550  18.1011900
  63.2449220  16.6573380  17.6493690  61.9324960  15.9376720  17.4224380
  67.1841210  12.4880180  35.4147320  66.5779370  12.5111780  34.6743070
  66.8795320  11.7563220  35.9514570  68.6141580  16.2160470  34.0256730
  69.5663330  16.1318490  33.9756970  68.4669800  16.8802180  34.6990520
  56.0674390   8.8673770  34.4107960  56.5713410   8.2881050  34.9824190
  55.3281810   9.1514000  34.9484330  62.9698010  11.5887960  17.9654250
  62.8648650  10.9740310  18.6915630  62.8022230  11.0653850  17.1817260
  63.1212330  10.2744760  33.9443480  62.3558000  10.8429760  33.8598150
  63.3028290   9.9820970  33.0511710  66.2100740  10.6507990  18.5696240
  65.6610840  11.0977290  19.2138980  66.8320000  10.1457240  19.0933910
  70.2635680  12.0050090  34.5018500  71.0045150  12.3425850  33.9985960
  69.5008360  12.1742150  33.9488270  58.0997470   7.0103360  35.3058030
  58.1402810   6.7117230  36.2143260  58.9542970   7.4110970  35.1465550
  61.8775860   9.6098910  20.4661540  62.2992280   9.4438780  21.3092930
  62.0026700   8.7999140  19.9716680  60.0403280   5.5895460  33.2732520
  59.5099740   5.0986410  32.6455860  60.7091350   6.0179660  32.7390450
  64.3903500   8.6336520  17.7138640  64.9109160   7.9185540  17.3479790
  65.0371900   9.2722390  18.0139150  68.9381340  10.0564920  33.0373710
  69.3522360  10.2110000  33.8864130  68.0032340  10.1820140  33.1999490
  69.4103510   7.3961080  35.0412860  69.9924280   6.6413400  34.9533340
  69.5865280   7.9268520  34.2644340  60.5275580   2.5557830  33.3529810
  60.4332450   1.9378580  32.6280680  59.9472970   3.2824120  33.1259720
  63.6996570  10.0085400  31.0069640  64.1184680  10.8518130  30.8345880
  62.7805200  10.1457440  30.7776420  66.0360470   7.7401580  32.3907480
  66.1556680   7.1442720  33.1302320  66.8954470   7.7771270  31.9708780
  68.3748370   8.2938770  30.9669990  67.8483590   8.8181390  30.3635130
  68.7179710   8.9266160  31.5979720  60.7734760   5.6832140  17.4119700
  60.5723820   4.8199500  17.7733040  60.6026810   5.5965500  16.4741300
  61.5503990  16.3138410  32.1227370  61.0125080  17.0384470  31.8036070
  61.8037950  15.8368750  31.3324710  62.8029240   4.2822930  33.6483300
  63.3928930   3.9738780  34.3361120  61.9849480   3.8102680  33.8043200
  67.6222670   3.8988740  33.8816320  66.9338190   3.2370280  33.8166310
  68.3428690   3.4527010  34.3264780  59.5717560   2.7832760  17.3997580
  59.8743460   2.7900190  16.4916730  60.3112150   2.4330620  17.8965240
  64.4066200  17.5489620  32.3814020  64.3324900  18.4524760  32.6886390
  63.5045040  17.2301520  32.3536090  64.9551530  16.7148130  20.0040380
  65.8502320  17.0533100  20.0259140  64.9869160  15.9927540  19.3764660
  58.5947690  12.0875180  18.2327380  59.0322560  12.6304850  18.8884960
  59.0795420  11.2622130  18.2423720  55.8093490  14.8764210  25.6847640
  56.1396500  14.0085270  25.4526280  56.2384490  15.0822730  26.5152600
  60.4055410  13.2073220  23.3449610  60.1050950  13.0838190  24.2453520
  60.2992900  12.3481810  22.9365340  56.2983700  15.7434800  28.4229270
  55.8614690  15.9235600  29.2553420  56.8661380  16.5009420  28.2810990
  56.1308130   8.2555030  24.7818150  55.4756970   7.9866670  24.1377850
  56.9686080   8.1459510  24.3320130  69.0798570   3.0496320  19.0036640
  69.4983450   2.8627300  18.1633300  68.7734630   2.1975370  19.3139570
  57.1684060   8.6407600  29.3221490  57.5357100   8.5535000  30.2017510
  56.5994880   7.8774150  29.2228350  56.7200060   5.5516690  33.2279910
  55.8256110   5.5183450  33.5673620  57.2597610   5.7503480  33.9931160
  55.3446210   5.4653960  20.7243480  54.4410290   5.7284160  20.5495140
  55.8286830   5.7365130  19.9443440  57.8873420   4.5219500  18.6337860
  58.5965120   4.1002720  18.1485140  57.1713360   4.5894730  18.0021210
  58.5836140  13.1540290  34.4841640  58.5405770  12.7833200  35.3656100
  58.7147150  14.0917860  34.6243460  62.2842170  14.7099880  30.0851360
  62.0433530  14.9774440  29.1981880  63.2244810  14.8805610  30.1402220
  58.4224170  16.1002540  31.6039420  57.8284490  15.9687240  32.3429460
  58.4148010  15.2640680  31.1381520  58.0536400  13.4660920  30.5547460
  57.3270460  12.8466210  30.4873410  58.1145550  13.8601530  29.6845540
  61.6581500  15.6805920  27.3396870  62.1746520  15.0693280  26.8145130
  62.3078880  16.1834700  27.8307880  64.3977000  16.5714410  28.1665850
  64.6854810  16.3168710  27.2898860  64.9100220  16.0191770  28.7571420
  56.3366400  16.7835310  23.7644220  56.1688440  16.1505990  24.4626110
  55.4700910  16.9894710  23.4138410  63.5008230   2.7291360  24.2578390
  62.6882740   2.3548250  23.9174270  64.0049870   1.9736440  24.5599580
  57.9429100  15.4768540  21.2094360  57.4176720  15.8576570  20.5056320
  57.8673680  16.1019310  21.9304070  64.4649360  17.4930510  35.5334050
  65.3916670  17.2574780  35.5770010  64.4499790  18.3202510  35.0520080
  60.5422070  17.4250920  20.0843610  61.2740890  17.1410200  19.5367500
  60.8015740  17.1864200  20.9742990  59.7036860  13.5415650  20.0889940
  59.0745740  14.0100750  20.6375770  59.8184690  12.6964870  20.5236130
  67.1586580   7.5921310   6.2391140  67.0780630   6.6775920   5.9682850
  66.7451000   8.0888380   5.5330850  65.2904620   9.3700330   8.1200410
  64.5146720   8.8900770   8.4098980  65.9417550   8.6905980   7.9456570
  59.3070450   9.6820140   8.9976170  58.4755330   9.4268850   9.3972680
  59.9151430   9.7530910   9.7334090  69.3112050  13.7760520   6.8999540
  68.8493580  13.0047760   7.2286710  70.1237600  13.8026590   7.4051990
  59.2871710  13.7160230   9.1934190  59.5899750  12.8257970   9.0144410
  60.0315300  14.2730450   8.9656440  57.7162400   4.6422030   2.7818560
  56.8279100   4.9838000   2.6798440  58.0003590   4.4422350   1.8899390
  55.6795410   7.2427680   8.6658260  56.2511520   6.4749880   8.6661900
  55.6796950   7.5416440   7.7564870  65.5375360  16.0618530   6.5203530
  64.9186800  16.5176030   5.9497970  66.3927140  16.2169990   6.1193230
  64.7313610  12.0457520   8.1270570  64.6621890  11.1047460   7.9659700
  65.4933470  12.1358930   8.6993140  56.9220280   2.6512040  10.4527190
  56.7423120   1.7537790  10.7329950  56.5200360   3.1983910  11.1274140
  65.7618780   4.8527900   8.3539500  66.1383600   3.9799780   8.2413170
  65.6638290   5.1886600   7.4629940  59.8923790   3.2253530   3.8156940
  59.9990540   4.1257260   4.1225700  58.9816150   3.1771500   3.5251590
  69.5442900   2.3478340   5.2867840  70.3652520   1.8574910   5.3293320
  69.5776980   2.9376000   6.0399680  57.5406950   5.1472540   9.0609530
  58.2217060   5.4110910   9.6796930  57.2255000   4.3073410   9.3947540
  61.7331520   6.1939900   8.1482120  62.2409740   6.6920870   8.7887140
  62.2644760   5.4175100   7.9721480  66.4038710  10.9457770   3.9135440
  65.7855980  11.4107220   3.3498160  66.9161960  11.6385250   4.3304950
  61.2670470  10.4733640  10.5919040  60.9339850  11.1002560  11.2340110
  61.4437150  10.9995520   9.8120710  69.7804380   4.2878720   8.0595380
  69.0759950   4.5763610   8.6398490  70.1416540   5.0978830   7.6994940
  59.6982950   2.5448420  10.4215990  60.0399760   3.3890470  10.1269860
  58.7598760   2.6932160  10.5381330  60.4789570  12.4414440  12.4068220
  61.0963570  13.1165520  12.1252670  59.6182690  12.8502420  12.3155720
  68.9325900  15.7497980   9.0368040  68.9453060  15.3460270   8.1690300
  68.3801120  16.5245270   8.9329470  70.2271320  12.4714200   4.1258210
  70.1167650  11.5288530   4.2507630  70.2239570  12.8329840   5.0120970
  68.3311340  10.6527820  10.3650650  68.7480130  10.4387930   9.5304110
  69.0551160  10.9100610  10.9359270  65.7691600   8.0979520   3.4820700
  64.8420880   8.0316900   3.7109170  65.9216420   9.0359650   3.3675940
  69.7988890   9.6599820   3.9855950  69.1801310   9.3219370   3.3382250
  69.7813340   9.0159580   4.6935140  69.2415450   5.8384360  11.4021760
  68.8286630   6.6638070  11.6561750  68.5091400   5.2529400  11.2098120
  61.3748240   8.6244260   6.2640430  60.9705240   7.9121510   5.7686330
  61.4611360   8.2797500   7.1528470  61.8429940  12.3111820   8.4279640
  61.5458230  11.7057290   7.7487420  62.7929760  12.3489130   8.3169000
  60.0876860   5.3987470  10.0439470  60.6391450   5.5082810   9.2692720
  60.6020370   5.7725070  10.7594700  69.9315550  15.8843690  12.0902740
  69.4546110  16.6915880  11.8975350  69.2477340  15.2322020  12.2428950
  60.9348370  12.0493510  15.0787440  60.0376900  12.2733480  15.3260840
  60.9601240  12.1728450  14.1298840  59.7619590   8.9206830  13.6544810
  59.6227360   9.7929630  14.0232210  58.8800950   8.5779640  13.5092750
  66.0848970  13.8382700   4.9609940  66.5244880  14.5807030   4.5465330
  66.0235860  14.0809270   5.8848900  61.5599940  14.8628530  15.8629960
  61.5315370  15.2671480  14.9958390  61.3964910  13.9338890  15.7001560
  58.0752870   7.5189240   3.7647080  57.9550470   8.2451330   3.1528350
  57.7653760   6.7492150   3.2874990  55.7138240  10.6904380   9.5715720
  55.7918660  10.8253150   8.6271440  56.3279920   9.9820270   9.7643840
  56.9585870  12.3904570   5.9821900  56.5513950  12.5319160   5.1275500
  57.8498880  12.1064730   5.7793110  66.7764750  16.5396480  12.8888950
  67.2909420  16.4504490  13.6911380  65.9333830  16.8856180  13.1816860
  68.7519150  16.8251820   2.3172950  68.5920290  16.5354760   3.2154780
  68.5865860  16.0491950   1.7818180  61.2307530  16.6050350   4.0944570
  61.0550010  15.6885890   3.8812370  60.3763270  16.9637640   4.3342370
  68.0195210  15.9602090   4.9519440  68.4752160  15.1791470   5.2658060
  68.3587730  16.6708910   5.4960620  55.7697760  11.7318550  12.1110180
  55.9328800  11.2623910  11.2929550  56.2350210  11.2242110  12.7759020
  64.8286340   3.7292830  12.7506070  64.3665710   3.9375850  13.5626010
  64.4264450   2.9152180  12.4476740  69.8290850   4.9501780  13.8802730
  68.9784440   4.6507530  14.2011800  69.6692640   5.1943790  12.9686550
  66.9240560   6.4503530  15.9801520  67.2493970   5.6167280  15.6403750
  67.7120890   6.9732050  16.1279850  60.3330750   5.9857880   4.8752000
  60.1071670   5.7695050   5.7798620  59.5523280   6.4186340   4.5297970
  67.5628510   5.9921250   3.4742650  66.9637400   6.7157050   3.2906270
  68.1108120   5.9298030   2.6919100  62.7729960   6.8843460  15.5412270
  62.6773560   5.9438190  15.3912670  63.6161940   7.1058530  15.1460340
  66.1693380   4.6284790   5.5045930  66.5622950   4.9456990   4.6914620
  66.5310230   3.7496670   5.6190450  57.9040500   3.2957130  13.6946050
  57.5103890   4.1432340  13.9018830  57.2158900   2.6583500  13.8854690
  64.4785550   3.3792100  16.7642790  63.7883870   3.1864300  17.3988880
  65.2217850   3.6626740  17.2967090  66.7548520   7.2190540   9.5996710
  66.0229640   7.7277350   9.9486810  66.3572860   6.4020520   9.2985490
  63.1925910   3.8944740   8.0049200  63.1961970   3.4534690   7.1553740
  64.0877030   4.2162070   8.1121020  59.0428290   3.7771230   6.9643410
  58.7028340   4.2546460   7.7210460  58.2805610   3.3236350   6.6044510
  67.2174430   2.6724220   9.0119650  67.2347170   3.1232870   9.8561500
  66.9690010   1.7729860   9.2253090  57.3436740  11.1069980  14.2705990
  56.9591530  10.4663650  14.8688950  57.6548930  11.8106100  14.8400720
  63.4933880   7.9546520   9.7514610  63.8604010   7.4805090  10.4975950
  63.3038940   8.8288090  10.0922950  56.3574370   2.6990210   5.8808080
  56.0721290   2.3345880   6.7186700  56.2953230   1.9670670   5.2671220
  61.2833250   6.9955160  12.0698820  60.9790320   7.8747140  12.2949180
  62.2379710   7.0554950  12.1056260  59.8115040  11.2016150   2.6665670
  59.0377300  10.6613770   2.5064390  60.5409670  10.6822760   2.3283430
  65.9521820  10.2690570  14.3461060  65.8859130   9.3486240  14.0918650
  65.3226960  10.3666010  15.0605700  59.8552440  10.8696530   6.3044480
  60.3731110  10.0664790   6.2501370  59.4036460  10.8075670   7.1461310
  57.3396980   7.8357900  13.2170180  56.9811920   8.5011750  13.8043520
  57.0451540   7.0041450  13.5882800  60.5410100   8.2942140  16.1009730
  60.2410240   8.4399320  15.2037550  61.3121340   7.7347430  16.0083120
  65.8838550  13.0911140  14.0964860  65.8983090  12.1592100  13.8783770
  65.1763650  13.1770900  14.7354630  67.6249350  11.4578650   6.9417290
  67.9773170  10.8606780   6.2818660  66.7411680  11.1322880   7.1125540
  63.7112630  12.2176340   4.3487700  64.3983760  12.7645550   4.7295290
  62.9245050  12.7617070   4.3837310  63.0139840   9.2222370   3.9613060
  63.4702620  10.0327620   4.1873250  62.6628050   8.9045510   4.7931550
  65.3172450  14.7328710  11.1905360  65.9614670  14.9388090  11.8678780
  65.6801890  13.9717110  10.7376210  66.5904530  12.7361060   9.9082810
  67.2326760  12.0354220  10.0214980  67.1153880  13.5159500   9.7279700
  68.3642150  13.5355960  13.1118870  68.6998390  14.1222650  13.7896790
  67.4442490  13.4048670  13.3416660  56.2018140  15.3131400  14.8808810
  56.3109260  14.3726140  14.7404200  55.5498700  15.5786150  14.2322540
  64.1930730  13.5847290  16.2806930  63.8727600  12.8656530  16.8252620
  63.5189090  14.2602360  16.3542990  67.4084330   3.8173450  11.6443730
  67.7765150   2.9968660  11.9723300  66.5482530   3.8775340  12.0599380
  70.7746360   2.7730390   2.4531290  70.1459520   2.8776060   1.7389520
  70.2798280   2.9927170   3.2425170  62.7430390   5.0516340   3.8689170
  62.0346540   5.5202680   4.3102780  63.0274870   4.3938350   4.5034360
  64.3686320   6.4713040  11.8681700  64.8671570   6.9458860  12.5333550
  64.5109270   5.5476560  12.0751730  66.7745820   1.7767000   5.3084960
  66.6513600   1.7953130   4.3594470  67.7230380   1.8245940   5.4283360
  63.8622610  17.0122300   4.5812940  64.1164110  16.9743690   3.6592310
  62.9135090  16.8855630   4.5741190  69.8675190   7.9314180   6.1571450
  68.9265330   7.9464410   6.3319140  70.1819260   7.1450140   6.6031750
  59.3418300  17.1954240   7.5042840  60.0780780  16.6469700   7.7751410
  59.7259220  18.0610250   7.3648830  56.2263780  13.2627810   3.3784350
  55.3003560  13.5048950   3.3689760  56.6920210  14.0902070   3.2569100
  58.3476580  16.3800310  16.6928420  59.1489310  16.7012360  17.1063820
  57.8328400  16.0195890  17.4148330  67.1841210  12.4880180  16.6403830
  66.5779370  12.5111780  15.8999580  66.8795320  11.7563220  17.1771080
  68.6141580  16.2160470  15.2513240  69.5663330  16.1318490  15.2013480
  68.4669800  16.8802180  15.9247030  56.0674390   8.8673770  15.6364470
  56.5713410   8.2881050  16.2080700  55.3281810   9.1514000  16.1740840
  63.1212330  10.2744760  15.1699990  62.3558000  10.8429760  15.0854660
  63.3028290   9.9820970  14.2768220  70.2635680  12.0050090  15.7275010
  71.0045150  12.3425850  15.2242470  69.5008360  12.1742150  15.1744780
  58.0997470   7.0103360  16.5314540  58.1402810   6.7117230  17.4399770
  58.9542970   7.4110970  16.3722060  60.0403280   5.5895460  14.4989030
  59.5099740   5.0986410  13.8712370  60.7091350   6.0179660  13.9646960
  68.9381340  10.0564920  14.2630220  69.3522360  10.2110000  15.1120640
  68.0032340  10.1820140  14.4256000  69.4103510   7.3961080  16.2669370
  69.9924280   6.6413400  16.1789850  69.5865280   7.9268520  15.4900850
  60.5275580   2.5557830  14.5786320  60.4332450   1.9378580  13.8537190
  59.9472970   3.2824120  14.3516230  63.6996570  10.0085400  12.2326150
  64.1184680  10.8518130  12.0602390  62.7805200  10.1457440  12.0032930
  66.0360470   7.7401580  13.6163990  66.1556680   7.1442720  14.3558830
  66.8954470   7.7771270  13.1965290  68.3748370   8.2938770  12.1926500
  67.8483590   8.8181390  11.5891640  68.7179710   8.9266160  12.8236230
  61.5503990  16.3138410  13.3483880  61.0125080  17.0384470  13.0292580
  61.8037950  15.8368750  12.5581220  62.8029240   4.2822930  14.8739810
  63.3928930   3.9738780  15.5617630  61.9849480   3.8102680  15.0299710
  67.6222670   3.8988740  15.1072830  66.9338190   3.2370280  15.0422820
  68.3428690   3.4527010  15.5521290  64.4066200  17.5489620  13.6070530
  64.3324900  18.4524760  13.9142900  63.5045040  17.2301520  13.5792600
  55.8093490  14.8764210   6.9104150  56.1396500  14.0085270   6.6782790
  56.2384490  15.0822730   7.7409110  60.4055410  13.2073220   4.5706120
  60.1050950  13.0838190   5.4710030  60.2992900  12.3481810   4.1621850
  56.2983700  15.7434800   9.6485780  55.8614690  15.9235600  10.4809930
  56.8661380  16.5009420   9.5067500  56.1308130   8.2555030   6.0074660
  55.4756970   7.9866670   5.3634360  56.9686080   8.1459510   5.5576640
  57.1684060   8.6407600  10.5478000  57.5357100   8.5535000  11.4274020
  56.5994880   7.8774150  10.4484860  56.7200060   5.5516690  14.4536420
  55.8256110   5.5183450  14.7930130  57.2597610   5.7503480  15.2187670
  58.5836140  13.1540290  15.7098150  58.5405770  12.7833200  16.5912610
  58.7147150  14.0917860  15.8499970  62.2842170  14.7099880  11.3107870
  62.0433530  14.9774440  10.4238390  63.2244810  14.8805610  11.3658730
  58.4224170  16.1002540  12.8295930  57.8284490  15.9687240  13.5685970
  58.4148010  15.2640680  12.3638030  58.0536400  13.4660920  11.7803970
  57.3270460  12.8466210  11.7129920  58.1145550  13.8601530  10.9102050
  61.6581500  15.6805920   8.5653380  62.1746520  15.0693280   8.0401640
  62.3078880  16.1834700   9.0564390  64.3977000  16.5714410   9.3922360
  64.6854810  16.3168710   8.5155370  64.9100220  16.0191770   9.9827930
  56.3366400  16.7835310   4.9900730  56.1688440  16.1505990   5.6882620
  55.4700910  16.9894710   4.6394920  63.5008230   2.7291360   5.4834900
  62.6882740   2.3548250   5.1430780  64.0049870   1.9736440   5.7856090
  57.9429100  15.4768540   2.4350870  57.4176720  15.8576570   1.7312830
  57.8673680  16.1019310   3.1560580  64.4649360  17.4930510  16.7590560
  65.3916670  17.2574780  16.8026520  64.4499790  18.3202510  16.2776590
  48.3843090  63.9151780  62.5621610  48.3037140  63.0006390  62.2913320
  47.9707510  64.4118850  61.8561320  46.5161130  65.6930800  64.4430880
  45.7403230  65.2131240  64.7329450  47.1674060  65.0136450  64.2687040
  40.5326960  66.0050610  65.3206640  39.7011840  65.7499320  65.7203150
  41.1407940  66.0761380  66.0564560  50.5368560  70.0990990  63.2230010
  50.0750090  69.3278230  63.5517180  51.3494110  70.1257060  63.7282460
  40.5128220  70.0390700  65.5164660  40.8156260  69.1488440  65.3374880
  41.2571810  70.5960920  65.2886910  38.9418910  60.9652500  59.1049030
  38.0535610  61.3068470  59.0028910  39.2260100  60.7652820  58.2129860
  36.9051920  63.5658150  64.9888730  37.4768030  62.7980350  64.9892370
  36.9053460  63.8646910  64.0795340  45.9570120  68.3687990  64.4501040
  45.8878400  67.4277930  64.2890170  46.7189980  68.4589400  65.0223610
  38.1476790  58.9742510  66.7757660  37.9679630  58.0768260  67.0560420
  37.7456870  59.5214380  67.4504610  46.9875290  61.1758370  64.6769970
  47.3640110  60.3030250  64.5643640  46.8894800  61.5117070  63.7860410
  41.1180300  59.5484000  60.1387410  41.2247050  60.4487730  60.4456170
  40.2072660  59.5001970  59.8482060  50.7699410  58.6708810  61.6098310
  51.5909030  58.1805380  61.6523790  50.8033490  59.2606470  62.3630150
  38.7663460  61.4703010  65.3840000  39.4473570  61.7341380  66.0027400
  38.4511510  60.6303880  65.7178010  42.9588030  62.5170370  64.4712590
  43.4666250  63.0151340  65.1117610  43.4901270  61.7405570  64.2951950
  55.0598960  60.6875560  68.1741940  54.3551130  61.0757270  67.6557050
  55.3256880  61.3825850  68.7762870  41.2424130  57.1568930  68.7376010
  41.2442570  57.6741320  67.9321910  40.4128440  56.6799110  68.7145940
  47.6295220  67.2688240  60.2365910  47.0112490  67.7337690  59.6728630
  48.1418470  67.9615720  60.6535420  42.4926980  66.7964110  66.9149510
  42.1596360  67.4233030  67.5570580  42.6693660  67.3225990  66.1351180
  51.0060890  60.6109190  64.3825850  50.3016460  60.8994080  64.9628960
  51.3673050  61.4209300  64.0225410  40.9239460  58.8678890  66.7446460
  41.2656270  59.7120940  66.4500330  39.9855270  59.0162630  66.8611800
  41.7046080  68.7644910  68.7298690  42.3220080  69.4395990  68.4483140
  40.8439200  69.1732890  68.6386190  36.9978420  67.9544770  57.6105540
  36.6206400  68.4431870  56.8790440  37.2551490  68.6270050  58.2412070
  52.6223670  70.2284320  66.6453330  51.9387190  70.8983430  66.6370000
  53.1617960  70.4264970  65.8798190  54.0747810  60.0563980  64.7735060
  53.1272720  60.0902960  64.9050490  54.3997800  60.8702930  65.1584420
  44.6067350  56.3561160  63.0691050  44.9142330  55.8008050  62.3526550
  43.6768050  56.4905620  62.8864040  51.4527830  68.7944670  60.4488680
  51.3424160  67.8519000  60.5738100  51.4496080  69.1560310  61.3351440
  49.5567850  66.9758290  66.6881120  49.9736640  66.7618400  65.8534580
  50.2807670  67.2331080  67.2589740  46.9948110  64.4209990  59.8051170
  46.0677390  64.3547370  60.0339640  47.1472930  65.3590120  59.6906410
  46.9817190  60.6926990  56.8018330  46.0420860  60.8540950  56.8870790
  47.3000450  61.4112670  56.2554320  53.5029950  65.3745510  66.7797360
  52.6748580  65.4438600  66.3047490  54.0980430  65.9599820  66.3113190
  51.0245400  65.9830290  60.3086420  50.4057820  65.6449840  59.6612720
  51.0069850  65.3390050  61.0165610  50.4671960  62.1614830  67.7252230
  50.0543140  62.9868540  67.9792220  49.7347910  61.5759870  67.5328590
  42.6004750  64.9474730  62.5870900  42.1961750  64.2351980  62.0916800
  42.6867870  64.6027970  63.4758940  43.0686450  68.6342290  64.7510110
  42.7714740  68.0287760  64.0717890  44.0186270  68.6719600  64.6399470
  41.3133370  61.7217940  66.3669940  41.8647960  61.8313280  65.5923190
  41.8276880  62.0955540  67.0825170  49.2010100  65.2217100  57.3159170
  49.6403380  64.3839530  57.1696990  49.9138520  65.8546500  57.4023310
  47.3105480  70.1613170  61.2840410  47.7501390  70.9037500  60.8695800
  47.2492370  70.4039740  62.2079370  52.7827240  56.4759910  55.6300210
  52.4699900  56.5686740  56.5299280  53.5439710  57.0540940  55.5797640
  39.3009380  63.8419710  60.0877550  39.1806980  64.5681800  59.4758820
  38.9910270  63.0722620  59.6105460  36.9394750  67.0134850  65.8946190
  37.0175170  67.1483620  64.9501910  37.5536430  66.3050740  66.0874310
  38.1842380  68.7135040  62.3052370  37.7770460  68.8549630  61.4505970
  39.0755390  68.4295200  62.1023580  49.6801790  70.6569850  57.2001420
  48.9866950  70.6547140  56.5403700  50.4224650  70.2329170  56.7695590
  36.9954270  68.0549020  68.4340650  37.1585310  67.5854380  67.6160020
  37.4606720  67.5472580  69.0989490  41.7673040  57.1854780  63.4701220
  41.3241190  57.9664320  63.1385740  42.3258030  57.5084670  64.1772160
  46.0542850  60.0523300  69.0736540  45.5922220  60.2606320  69.8856480
  45.6520960  59.2382650  68.7707210  44.8831860  56.8065480  58.3507050
  44.2586040  56.8025350  59.0760360  44.7961980  55.9396440  57.9543020
  43.8048940  57.7302110  65.3290820  44.1021270  58.6364940  65.2482840
  44.3534500  57.2420890  64.7150390  41.5587260  62.3088350  61.1982470
  41.3328180  62.0925520  62.1029090  40.7779790  62.7416810  60.8528440
  48.7885020  62.3151720  59.7973120  48.1893910  63.0387520  59.6136740
  49.3364630  62.2528500  59.0149570  47.3949890  60.9515260  61.8276400
  47.7879460  61.2687460  61.0145090  47.7566740  60.0727140  61.9420920
  39.1297010  59.6187600  70.0176520  38.7360400  60.4662810  70.2249300
  38.4415410  58.9813970  70.2085160  36.4314060  57.5416060  64.0506600
  36.1427110  58.1118920  64.7631580  37.1759820  57.0620510  64.4137830
  36.6184290  61.4836180  55.2609320  36.5358960  62.4266940  55.4024310
  36.2667350  61.3411090  54.3821670  47.9805030  63.5421010  65.9227180
  47.2486150  64.0507820  66.2717280  47.5829370  62.7250990  65.6215960
  44.4182420  60.2175210  64.3279670  44.4218480  59.7765160  63.4784210
  45.3133540  60.5392540  64.4351490  40.2684800  60.1001700  63.2873880
  39.9284850  60.5776930  64.0440930  39.5062120  59.6466820  62.9274980
  44.4802570  61.2187290  57.3186430  44.6015390  61.1773770  58.2672250
  44.0951080  62.0811440  57.1633160  48.4430940  58.9954690  65.3350120
  48.4603680  59.4463340  66.1791970  48.1946520  58.0960330  65.5483560
  43.4924070  63.5288430  56.7169730  42.9240970  63.0806680  56.0905640
  44.2013070  63.8881210  56.1834880  44.7190390  64.2776990  66.0745080
  45.0860520  63.8035560  66.8206420  44.5295450  65.1518560  66.4153420
  37.5830880  59.0220680  62.2038550  37.2977800  58.6576350  63.0417170
  37.5209740  58.2901140  61.5901690  42.5089760  63.3185630  68.3929290
  42.2046830  64.1977610  68.6179650  43.4636220  63.3785420  68.4286730
  41.0371550  67.5246620  58.9896140  40.2633810  66.9844240  58.8294860
  41.7666180  67.0053230  58.6513900  51.7959530  66.5211980  64.7822530
  52.5158650  67.0167270  64.3918640  51.5941350  65.8429870  64.1376400
  47.2569470  57.9149940  58.9251920  46.4434080  57.4163110  58.8497230
  47.0631420  58.7548190  58.5088270  49.9717860  62.2869590  57.2214080
  50.8597480  62.5986820  57.0465420  49.9422950  61.4141840  56.8294660
  41.0808950  67.1927000  62.6274950  41.5987620  66.3895260  62.5731840
  40.6292970  67.1306140  63.4691780  45.9678450  68.4593280  57.9002250
  46.3094150  69.2035510  57.4045570  45.1391160  68.7724400  58.2627080
  38.5653490  64.1588370  69.5400650  38.2068430  64.8242220  70.1273990
  38.2708050  63.3271920  69.9113270  52.2432130  63.5981430  56.6893940
  52.1595850  64.0295650  55.8390380  52.9626320  64.0579780  57.1220760
  53.3206270  66.0548950  69.7663910  52.5954460  66.6477730  69.5693300
  53.8481730  66.0472490  68.9677280  53.2719380  70.4523690  59.4176070
  52.6295540  69.7979310  59.6919790  52.8850040  70.8578780  58.6416740
  48.8505860  67.7809120  63.2647760  49.2029680  67.1837250  62.6049130
  47.9668190  67.4553350  63.4356010  44.9369140  68.5406810  60.6718170
  45.6240270  69.0876020  61.0525760  44.1501560  69.0847540  60.7067780
  37.0761540  64.1579630  56.1635250  37.9456390  64.4404430  56.4471170
  36.5851860  64.9715500  56.0484060  44.2396350  65.5452840  60.2843530
  44.6959130  66.3558090  60.5103720  43.8884560  65.2275980  61.1162020
  46.5428960  71.0559180  67.5135830  47.1871180  71.2618560  68.1909250
  46.9058400  70.2947580  67.0606680  40.1408130  55.8890490  60.7566050
  40.0122760  55.8808390  61.7050970  39.3170150  56.2273580  60.4057060
  47.8161040  69.0591530  66.2313280  48.4583270  68.3584690  66.3445450
  48.3410390  69.8389970  66.0510170  51.6616760  69.3440150  55.9552420
  51.4354340  68.6270590  56.5477060  51.2712960  69.0952590  55.1174170
  49.5898660  69.8586430  69.4349340  49.9254900  70.4453120  70.1127260
  48.6699000  69.7279140  69.6647130  51.2433010  67.2612090  57.6166580
  50.9554710  67.7224780  58.4044460  52.0385180  66.8009860  57.8850800
  43.4601410  70.7538210  57.5470550  43.4511510  71.4867900  56.9315060
  42.5399770  70.5069790  57.6397510  39.0608050  65.9753100  58.2917310
  38.4536000  66.7152000  58.3012610  39.5357400  66.0652460  57.4655510
  48.6340840  60.1403920  67.9674200  49.0021660  59.3199130  68.2953770
  47.7739040  60.2005810  68.3829850  52.0002870  59.0960860  58.7761760
  51.3716030  59.2006530  58.0619990  51.5054790  59.3157640  59.5655640
  46.4461010  70.8166450  56.2095740  46.5472990  70.6130440  55.2797720
  45.5462750  70.5624730  56.4143520  43.9686900  61.3746810  60.1919640
  43.2603050  61.8433150  60.6333250  44.2531380  60.7168820  60.8264830
  45.5942830  62.7943510  68.1912170  46.0928080  63.2689330  68.8564020
  45.7365780  61.8707030  68.3982200  48.0002330  58.0997470  61.6315430
  47.8770110  58.1183600  60.6824940  48.9486890  58.1476410  61.7513830
  42.1721920  59.6831890  57.5670350  43.0212450  60.1202040  57.5010540
  41.8053190  59.9952150  58.3942410  52.8009690  59.0111470  69.0340560
  52.2983290  59.7516870  69.3734370  53.6166350  59.3995470  68.7177350
  51.0931700  64.2544650  62.4801920  50.1521840  64.2694880  62.6549610
  51.4075770  63.4680610  62.9262220  41.0713340  65.9364250  56.0405880
  41.8376610  65.8245610  56.6031310  41.1488030  65.2402220  55.3882650
  39.7660100  63.3689320  56.7238770  39.8463690  62.4216830  56.8356170
  40.6579850  63.6996200  56.8299430  37.4520290  69.5858280  59.7014820
  36.5260070  69.8279420  59.6920230  37.9176720  70.4132540  59.5799570
  44.1954520  67.9118430  55.5141230  44.0905160  67.2970780  56.2402610
  44.0278740  67.3884320  54.7304240  47.4357250  66.9738460  56.1183220
  46.8867350  67.4207760  56.7625960  48.0576510  66.4687710  56.6420890
  43.1032370  65.9329380  58.0148520  43.5248790  65.7669250  58.8579910
  43.2283210  65.1229610  57.5203660  45.6160010  64.9566990  55.2625620
  46.1365670  64.2416010  54.8966770  46.2628410  65.5952860  55.5626130
  44.5193530  57.4361540  67.9344180  44.0710830  57.4585800  67.0889730
  43.8858730  57.0380560  68.5314480  44.9253080  66.3315870  68.5556620
  45.3441190  67.1748600  68.3832860  44.0061710  66.4687910  68.3263400
  49.6004880  64.6169240  68.5156970  49.0740100  65.1411860  67.9122110
  49.9436220  65.2496630  69.1466700  41.9991270  62.0062610  54.9606680
  41.7980330  61.1429970  55.3220020  41.8283320  61.9195970  54.0228280
  49.4779580  56.8170840  57.4893560  49.7581870  55.9738740  57.8452980
  48.7045310  57.0493950  58.0032310  40.7974070  59.1063230  54.9484560
  41.0999970  59.1130660  54.0403710  41.5368660  58.7561090  55.4452220
  44.0159000  58.0497850  55.9340760  43.6681000  57.3721840  55.3543210
  44.2171770  57.5887360  56.7484150  39.8204200  68.4105650  55.7814360
  40.2579070  68.9535320  56.4371940  40.3051930  67.5852600  55.7910700
  37.0350000  71.1994680  63.2334620  37.3653010  70.3315740  63.0013260
  37.4641000  71.4053200  64.0639580  41.6311920  69.5303690  60.8936590
  41.3307460  69.4068660  61.7940500  41.5249410  68.6712280  60.4852320
  54.4003840  69.3100090  55.5963270  53.5696800  69.3776740  56.0670500
  54.5775670  70.2004210  55.2930130  53.8560300  66.0547570  58.0997470
  54.6179210  66.6244220  58.2057160  53.8714670  65.4874770  58.8705780
  37.3564640  64.5785500  62.3305130  36.7013480  64.3097140  61.6864830
  38.1942590  64.4689980  61.8807110  54.8620270  66.9097670  62.9439400
  55.2329100  66.1264990  62.5375370  55.5022200  67.5986770  62.7656700
  51.8454030  68.2934250  68.3569720  51.0313870  68.7231410  68.6195510
  52.2528230  68.9052660  67.7438770  53.9079470  66.3481940  55.2569990
  54.1828310  67.2560820  55.1289210  53.7190210  66.2844470  56.1931980
  50.3055080  59.3726790  56.5523620  50.7239960  59.1857770  55.7120280
  49.9991140  58.5205840  56.8626550  53.8044810  64.2850930  60.2499420
  53.4288410  63.5178860  59.8180710  53.0747930  64.6673630  60.7374350
  38.3940570  64.9638070  66.8708470  38.7613610  64.8765470  67.7504490
  37.8251390  64.2004620  66.7715330  53.1944430  63.4322450  69.8838940
  52.9630520  63.2035200  68.9836890  53.4548980  64.3522000  69.8383830
  36.5702720  61.7884430  58.2730460  35.6666800  62.0514630  58.0982120
  37.0543340  62.0595600  57.4930420  53.0795770  62.5108420  63.5506660
  53.6033250  62.0171070  62.9196830  53.6655190  62.6458780  64.2954230
  53.2585490  62.5948290  67.0726210  52.3088200  62.5611830  67.1871200
  53.4398500  63.5048400  66.8375980  39.1129930  60.8449970  56.1824840
  39.8221630  60.4233190  55.6972120  38.3969870  60.9125200  55.5508190
  38.7604090  56.8989300  55.2227490  39.4832220  57.4398240  55.5408710
  39.0328610  56.6252720  54.3469030  52.5695740  61.7681770  59.4899070
  53.0654860  61.5352640  60.2747950  52.3711810  60.9293610  59.0736710
  38.4496280  56.1495490  65.1250110  39.0972470  55.5992870  64.6845270
  38.8698120  56.4038640  65.9465920  53.9982900  60.4042720  62.0236750
  53.8882180  60.2498760  62.9619020  54.7590490  59.8763660  61.7812160
  52.3448620  56.3436850  68.4819750  52.9820840  56.9570990  68.8478940
  52.4923510  56.3797510  67.5368980  54.8873170  58.2350640  55.2642890
  55.8122480  58.1031820  55.0561180  54.8648960  58.3143460  56.2179340
  54.9611660  59.0061300  57.8899600  54.1663160  58.9406420  58.4192510
  55.1654940  59.9411940  57.8784950  38.2028280  56.3051160  67.8675430
  37.8543100  56.7614980  68.6333610  37.8715980  55.4108290  67.9497860
  43.5098680  71.0330350  67.6338340  43.2690040  71.3004910  66.7468860
  44.4501320  71.2036080  67.6889200  49.0935700  55.7165240  67.3556430
  48.2195540  56.0500350  67.1529360  48.9846450  55.2438420  68.1808300
  50.0007680  57.9236110  68.7398150  49.6721040  57.1087870  68.3599880
  50.9489980  57.8805920  68.6163840  39.2792910  69.7891390  68.1034440
  38.5526970  69.1696680  68.0360390  39.3402060  70.1832000  67.2332520
  46.8410520  56.6335080  66.2949340  46.0582310  57.1080580  66.5746100
  46.5473450  55.7289910  66.1862520  51.3931590  57.3358180  64.3398430
  51.8339680  57.2803280  63.4920030  51.1239180  58.2516190  64.4108610
  53.2570160  56.9673420  62.3507250  53.1958560  56.0234640  62.2038270
  54.0362190  57.0753510  62.8960710  38.1850930  56.9382560  58.8163060
  38.9430290  57.0511440  58.2427090  37.7228100  57.7751760  58.7706490
  44.7264740  59.0521830  61.8065370  43.9139250  58.6778720  61.4661250
  45.2306380  58.2966910  62.1086560  49.2289720  55.7164280  63.0448440
  49.8319090  56.2884490  63.5196960  48.4882710  56.2803720  62.8222340
  52.3724320  56.1185840  58.3188720  52.5674950  57.0169290  58.5856150
  51.5854190  55.8872920  58.8121670  40.5576080  57.4646610  57.3565030
  41.0868840  56.6776410  57.2272980  41.1904400  58.1437800  57.5900560
  42.7513920  57.2021750  60.4110420  42.1216660  56.5009060  60.5780550
  42.2119060  57.9625880  60.1943580  40.9293370  69.8646120  57.6376920
  40.3002250  70.3331220  58.1862750  41.0441200  69.0195340  58.0723110
  48.3843090  63.9151780  43.7878120  48.3037140  63.0006390  43.5169830
  47.9707510  64.4118850  43.0817830  46.5161130  65.6930800  45.6687390
  45.7403230  65.2131240  45.9585960  47.1674060  65.0136450  45.4943550
  40.5326960  66.0050610  46.5463150  39.7011840  65.7499320  46.9459660
  41.1407940  66.0761380  47.2821070  50.5368560  70.0990990  44.4486520
  50.0750090  69.3278230  44.7773690  51.3494110  70.1257060  44.9538970
  40.5128220  70.0390700  46.7421170  40.8156260  69.1488440  46.5631390
  41.2571810  70.5960920  46.5143420  38.9418910  60.9652500  40.3305540
  38.0535610  61.3068470  40.2285420  39.2260100  60.7652820  39.4386370
  36.9051920  63.5658150  46.2145240  37.4768030  62.7980350  46.2148880
  36.9053460  63.8646910  45.3051850  45.9570120  68.3687990  45.6757550
  45.8878400  67.4277930  45.5146680  46.7189980  68.4589400  46.2480120
  38.1476790  58.9742510  48.0014170  37.9679630  58.0768260  48.2816930
  37.7456870  59.5214380  48.6761120  46.9875290  61.1758370  45.9026480
  47.3640110  60.3030250  45.7900150  46.8894800  61.5117070  45.0116920
  41.1180300  59.5484000  41.3643920  41.2247050  60.4487730  41.6712680
  40.2072660  59.5001970  41.0738570  50.7699410  58.6708810  42.8354820
  51.5909030  58.1805380  42.8780300  50.8033490  59.2606470  43.5886660
  38.7663460  61.4703010  46.6096510  39.4473570  61.7341380  47.2283910
  38.4511510  60.6303880  46.9434520  42.9588030  62.5170370  45.6969100
  43.4666250  63.0151340  46.3374120  43.4901270  61.7405570  45.5208460
  55.0598960  60.6875560  49.3998450  54.3551130  61.0757270  48.8813560
  55.3256880  61.3825850  50.0019380  41.2424130  57.1568930  49.9632520
  41.2442570  57.6741320  49.1578420  40.4128440  56.6799110  49.9402450
  47.6295220  67.2688240  41.4622420  47.0112490  67.7337690  40.8985140
  48.1418470  67.9615720  41.8791930  42.4926980  66.7964110  48.1406020
  42.1596360  67.4233030  48.7827090  42.6693660  67.3225990  47.3607690
  51.0060890  60.6109190  45.6082360  50.3016460  60.8994080  46.1885470
  51.3673050  61.4209300  45.2481920  40.9239460  58.8678890  47.9702970
  41.2656270  59.7120940  47.6756840  39.9855270  59.0162630  48.0868310
  41.7046080  68.7644910  49.9555200  42.3220080  69.4395990  49.6739650
  40.8439200  69.1732890  49.8642700  36.9978420  67.9544770  38.8362050
  36.6206400  68.4431870  38.1046950  37.2551490  68.6270050  39.4668580
  52.6223670  70.2284320  47.8709840  51.9387190  70.8983430  47.8626510
  53.1617960  70.4264970  47.1054700  54.0747810  60.0563980  45.9991570
  53.1272720  60.0902960  46.1307000  54.3997800  60.8702930  46.3840930
  44.6067350  56.3561160  44.2947560  44.9142330  55.8008050  43.5783060
  43.6768050  56.4905620  44.1120550  51.4527830  68.7944670  41.6745190
  51.3424160  67.8519000  41.7994610  51.4496080  69.1560310  42.5607950
  49.5567850  66.9758290  47.9137630  49.9736640  66.7618400  47.0791090
  50.2807670  67.2331080  48.4846250  46.9948110  64.4209990  41.0307680
  46.0677390  64.3547370  41.2596150  47.1472930  65.3590120  40.9162920
  46.9817190  60.6926990  38.0274840  46.0420860  60.8540950  38.1127300
  47.3000450  61.4112670  37.4810830  53.5029950  65.3745510  48.0053870
  52.6748580  65.4438600  47.5304000  54.0980430  65.9599820  47.5369700
  51.0245400  65.9830290  41.5342930  50.4057820  65.6449840  40.8869230
  51.0069850  65.3390050  42.2422120  50.4671960  62.1614830  48.9508740
  50.0543140  62.9868540  49.2048730  49.7347910  61.5759870  48.7585100
  42.6004750  64.9474730  43.8127410  42.1961750  64.2351980  43.3173310
  42.6867870  64.6027970  44.7015450  43.0686450  68.6342290  45.9766620
  42.7714740  68.0287760  45.2974400  44.0186270  68.6719600  45.8655980
  41.3133370  61.7217940  47.5926450  41.8647960  61.8313280  46.8179700
  41.8276880  62.0955540  48.3081680  42.1604880  68.3723980  52.6274420
  41.2633410  68.5963950  52.8747820  42.1857750  68.4958920  51.6785820
  49.2010100  65.2217100  38.5415680  49.6403380  64.3839530  38.3953500
  49.9138520  65.8546500  38.6279820  40.9876100  65.2437300  51.2031790
  40.8483870  66.1160100  51.5719190  40.1057460  64.9010110  51.0579730
  47.3105480  70.1613170  42.5096920  47.7501390  70.9037500  42.0952310
  47.2492370  70.4039740  43.4335880  52.7827240  56.4759910  36.8556720
  52.4699900  56.5686740  37.7555790  53.5439710  57.0540940  36.8054150
  39.3009380  63.8419710  41.3134060  39.1806980  64.5681800  40.7015330
  38.9910270  63.0722620  40.8361970  36.9394750  67.0134850  47.1202700
  37.0175170  67.1483620  46.1758420  37.5536430  66.3050740  47.3130820
  38.1842380  68.7135040  43.5308880  37.7770460  68.8549630  42.6762480
  39.0755390  68.4295200  43.3280090  54.1404520  69.1598950  51.8681120
  54.2667580  68.9210830  50.9498300  54.1825900  68.3283490  52.3403200
  49.6801790  70.6569850  38.4257930  48.9866950  70.6547140  37.7660210
  50.4224650  70.2329170  37.9952100  53.9928530  61.2131410  52.8330860
  53.3772800  61.7211080  52.3046320  53.6724950  60.3129740  52.7756800
  36.9954270  68.0549020  49.6597160  37.1585310  67.5854380  48.8416530
  37.4606720  67.5472580  50.3246000  41.7673040  57.1854780  44.6957730
  41.3241190  57.9664320  44.3642250  42.3258030  57.5084670  45.4028670
  46.0542850  60.0523300  50.2993050  45.5922220  60.2606320  51.1112990
  45.6520960  59.2382650  49.9963720  51.0547360  61.2732250  51.4289710
  50.2040950  60.9738000  51.7498780  50.8949150  61.5174260  50.5173530
  48.1497070  62.7734000  53.5288500  48.4750480  61.9397750  53.1890730
  48.9377400  63.2962520  53.6766830  44.8831860  56.8065480  39.5763560
  44.2586040  56.8025350  40.3016870  44.7961980  55.9396440  39.1799530
  43.8048940  57.7302110  46.5547330  44.1021270  58.6364940  46.4739350
  44.3534500  57.2420890  45.9406900  41.5587260  62.3088350  42.4238980
  41.3328180  62.0925520  43.3285600  40.7779790  62.7416810  42.0784950
  48.7885020  62.3151720  41.0229630  48.1893910  63.0387520  40.8393250
  49.3364630  62.2528500  40.2406080  43.9986470  63.2073930  53.0899250
  43.9030070  62.2668660  52.9399650  44.8418450  63.4289000  52.6947320
  47.3949890  60.9515260  43.0532910  47.7879460  61.2687460  42.2401600
  47.7566740  60.0727140  43.1677430  39.1297010  59.6187600  51.2433030
  38.7360400  60.4662810  51.4505810  38.4415410  58.9813970  51.4341670
  45.7042060  59.7022570  54.3129770  45.0140380  59.5094770  54.9475860
  46.4474360  59.9857210  54.8454070  36.4314060  57.5416060  45.2763110
  36.1427110  58.1118920  45.9888090  37.1759820  57.0620510  45.6394340
  36.6184290  61.4836180  36.4865830  36.5358960  62.4266940  36.6280820
  36.2667350  61.3411090  35.6078180  47.9805030  63.5421010  47.1483690
  47.2486150  64.0507820  47.4973790  47.5829370  62.7250990  46.8472470
  44.4182420  60.2175210  45.5536180  44.4218480  59.7765160  44.7040720
  45.3133540  60.5392540  45.6608000  40.2684800  60.1001700  44.5130390
  39.9284850  60.5776930  45.2697440  39.5062120  59.6466820  44.1531490
  44.4802570  61.2187290  38.5442940  44.6015390  61.1773770  39.4928760
  44.0951080  62.0811440  38.3889670  48.4430940  58.9954690  46.5606630
  48.4603680  59.4463340  47.4048480  48.1946520  58.0960330  46.7740070
  43.4924070  63.5288430  37.9426240  42.9240970  63.0806680  37.3162150
  44.2013070  63.8881210  37.4091390  51.8701690  56.4086870  52.3993010
  52.1947460  55.6776530  52.9250990  51.9058200  56.0900510  51.4974000
  38.5693250  67.4300450  51.8192970  38.1848040  66.7894120  52.4175930
  38.8805440  68.1336570  52.3887700  44.7190390  64.2776990  47.3001590
  45.0860520  63.8035560  48.0462930  44.5295450  65.1518560  47.6409930
  37.5830880  59.0220680  43.4295060  37.2977800  58.6576350  44.2673680
  37.5209740  58.2901140  42.8158200  42.5089760  63.3185630  49.6185800
  42.2046830  64.1977610  49.8436160  43.4636220  63.3785420  49.6543240
  41.0371550  67.5246620  40.2152650  40.2633810  66.9844240  40.0551370
  41.7666180  67.0053230  39.8770410  51.7959530  66.5211980  46.0079040
  52.5158650  67.0167270  45.6175150  51.5941350  65.8429870  45.3632910
  47.2569470  57.9149940  40.1508430  46.4434080  57.4163110  40.0753740
  47.0631420  58.7548190  39.7344780  47.1778330  66.5921040  51.8948040
  47.1115640  65.6716710  51.6405630  46.5483470  66.6896480  52.6092680
  49.9717860  62.2869590  38.4470590  50.8597480  62.5986820  38.2721930
  49.9422950  61.4141840  38.0551170  41.0808950  67.1927000  43.8531460
  41.5987620  66.3895260  43.7988350  40.6292970  67.1306140  44.6948290
  45.9678450  68.4593280  39.1258760  46.3094150  69.2035510  38.6302080
  45.1391160  68.7724400  39.4883590  38.5653490  64.1588370  50.7657160
  38.2068430  64.8242220  51.3530500  38.2708050  63.3271920  51.1369780
  41.7666610  64.6172610  53.6496710  41.4666750  64.7629790  52.7524530
  42.5377850  64.0577900  53.5570100  47.1095060  69.4141610  51.6451840
  47.1239600  68.4822570  51.4270750  46.4020160  69.5001370  52.2841610
  52.2432130  63.5981430  37.9150450  52.1595850  64.0295650  37.0646890
  52.9626320  64.0579780  38.3477270  53.3206270  66.0548950  50.9920420
  52.5954460  66.6477730  50.7949810  53.8481730  66.0472490  50.1933790
  53.2719380  70.4523690  40.6432580  52.6295540  69.7979310  40.9176300
  52.8850040  70.8578780  39.8673250  48.8505860  67.7809120  44.4904270
  49.2029680  67.1837250  43.8305640  47.9668190  67.4553350  44.6612520
  44.9369140  68.5406810  41.8974680  45.6240270  69.0876020  42.2782270
  44.1501560  69.0847540  41.9324290  37.0761540  64.1579630  37.3891760
  37.9456390  64.4404430  37.6727680  36.5851860  64.9715500  37.2740570
  44.2396350  65.5452840  41.5100040  44.6959130  66.3558090  41.7360230
  43.8884560  65.2275980  42.3418530  46.5428960  71.0559180  48.7392340
  47.1871180  71.2618560  49.4165760  46.9058400  70.2947580  48.2863190
  40.1408130  55.8890490  41.9822560  40.0122760  55.8808390  42.9307480
  39.3170150  56.2273580  41.6313570  47.8161040  69.0591530  47.4569790
  48.4583270  68.3584690  47.5701960  48.3410390  69.8389970  47.2766680
  51.6616760  69.3440150  37.1808930  51.4354340  68.6270590  37.7733570
  51.2712960  69.0952590  36.3430680  49.5898660  69.8586430  50.6605850
  49.9254900  70.4453120  51.3383770  48.6699000  69.7279140  50.8903640
  37.1402060  57.6481610  51.4429260  36.4260580  57.8478530  52.0481870
  37.5597100  56.8721180  51.8144060  51.2433010  67.2612090  38.8423090
  50.9554710  67.7224780  39.6300970  52.0385180  66.8009860  39.1107310
  45.4187240  69.9077760  53.8293910  45.0984110  69.1887000  54.3739600
  44.7445600  70.5832830  53.9029970  43.4601410  70.7538210  38.7727060
  43.4511510  71.4867900  38.1571570  42.5399770  70.5069790  38.8654020
  39.0608050  65.9753100  39.5173820  38.4536000  66.7152000  39.5269120
  39.5357400  66.0652460  38.6912020  48.6340840  60.1403920  49.1930710
  49.0021660  59.3199130  49.5210280  47.7739040  60.2005810  49.6086360
  52.0002870  59.0960860  40.0018270  51.3716030  59.2006530  39.2876500
  51.5054790  59.3157640  40.7912150  46.4461010  70.8166450  37.4352250
  46.5472990  70.6130440  36.5054230  45.5462750  70.5624730  37.6400030
  43.9686900  61.3746810  41.4176150  43.2603050  61.8433150  41.8589760
  44.2531380  60.7168820  42.0521340  45.5942830  62.7943510  49.4168680
  46.0928080  63.2689330  50.0820530  45.7365780  61.8707030  49.6238710
  48.0002330  58.0997470  42.8571940  47.8770110  58.1183600  41.9081450
  48.9486890  58.1476410  42.9770340  42.1721920  59.6831890  38.7926860
  43.0212450  60.1202040  38.7267050  41.8053190  59.9952150  39.6198920
  52.8009690  59.0111470  50.2597070  52.2983290  59.7516870  50.5990880
  53.6166350  59.3995470  49.9433860  51.0931700  64.2544650  43.7058430
  50.1521840  64.2694880  43.8806120  51.4075770  63.4680610  44.1518730
  41.0713340  65.9364250  37.2662390  41.8376610  65.8245610  37.8287820
  41.1488030  65.2402220  36.6139160  39.7660100  63.3689320  37.9495280
  39.8463690  62.4216830  38.0612680  40.6579850  63.6996200  38.0555940
  37.4520290  69.5858280  40.9271330  36.5260070  69.8279420  40.9176740
  37.9176720  70.4132540  40.8056080  48.4097720  68.8110650  54.1890810
  47.8035880  68.8342250  53.4486560  48.1051830  68.0793690  54.7258060
  37.2930900  65.1904240  53.1851450  37.7969920  64.6111520  53.7567680
  36.5538320  65.4744470  53.7227820  44.1954520  67.9118430  36.7397740
  44.0905160  67.2970780  37.4659120  44.0278740  67.3884320  35.9560750
  44.3468840  66.5975230  52.7186970  43.5814510  67.1660230  52.6341640
  44.5284800  66.3051440  51.8255200  47.4357250  66.9738460  37.3439730
  46.8867350  67.4207760  37.9882470  48.0576510  66.4687710  37.8677400
  51.4892190  68.3280560  53.2761990  52.2301660  68.6656320  52.7729450
  50.7264870  68.4972620  52.7231760  39.3253980  63.3333830  54.0801520
  39.3659320  63.0347700  54.9886750  40.1799480  63.7341440  53.9209040
  43.1032370  65.9329380  39.2405030  43.5248790  65.7669250  40.0836420
  43.2283210  65.1229610  38.7460170  41.2659790  61.9125930  52.0476010
  40.7356250  61.4216880  51.4199350  41.9347860  62.3410130  51.5133940
  45.6160010  64.9566990  36.4882130  46.1365670  64.2416010  36.1223280
  46.2628410  65.5952860  36.7882640  50.1637850  66.3795390  51.8117200
  50.5778870  66.5340470  52.6607620  49.2288850  66.5050610  51.9742980
  50.6360020  63.7191550  53.8156350  51.2180790  62.9643870  53.7276830
  50.8121790  64.2498990  53.0387830  41.7532090  58.8788300  52.1273300
  41.6588960  58.2609050  51.4024170  41.1729480  59.6054590  51.9003210
  44.5193530  57.4361540  49.1600690  44.0710830  57.4585800  48.3146240
  43.8858730  57.0380560  49.7570990  44.9253080  66.3315870  49.7813130
  45.3441190  67.1748600  49.6089370  44.0061710  66.4687910  49.5519910
  47.2616980  64.0632050  51.1650970  47.3813190  63.4673190  51.9045810
  48.1210980  64.1001740  50.7452270  49.6004880  64.6169240  49.7413480
  49.0740100  65.1411860  49.1378620  49.9436220  65.2496630  50.3723210
  41.9991270  62.0062610  36.1863190  41.7980330  61.1429970  36.5476530
  41.8283320  61.9195970  35.2484790  44.0285750  60.6053400  52.4226790
  44.6185440  60.2969250  53.1104610  43.2105990  60.1333150  52.5786690
  48.8479180  60.2219210  52.6559810  48.1594700  59.5600750  52.5909800
  49.5685200  59.7757480  53.1008270  49.4779580  56.8170840  38.7150070
  49.7581870  55.9738740  39.0709490  48.7045310  57.0493950  39.2288820
  40.7974070  59.1063230  36.1741070  41.0999970  59.1130660  35.2660220
  41.5368660  58.7561090  36.6708730  44.0159000  58.0497850  37.1597270
  43.6681000  57.3721840  36.5799720  44.2171770  57.5887360  37.9740660
  39.8204200  68.4105650  37.0070870  40.2579070  68.9535320  37.6628450
  40.3051930  67.5852600  37.0167210  37.0350000  71.1994680  44.4591130
  37.3653010  70.3315740  44.2269770  37.4641000  71.4053200  45.2896090
  41.6311920  69.5303690  42.1193100  41.3307460  69.4068660  43.0197010
  41.5249410  68.6712280  41.7108830  54.4003840  69.3100090  36.8219780
  53.5696800  69.3776740  37.2927010  54.5775670  70.2004210  36.5186640
  53.8560300  66.0547570  39.3253980  54.6179210  66.6244220  39.4313670
  53.8714670  65.4874770  40.0962290  37.3564640  64.5785500  43.5561640
  36.7013480  64.3097140  42.9121340  38.1942590  64.4689980  43.1063620
  54.8620270  66.9097670  44.1695910  55.2329100  66.1264990  43.7631880
  55.5022200  67.5986770  43.9913210  51.8454030  68.2934250  49.5826230
  51.0313870  68.7231410  49.8452020  52.2528230  68.9052660  48.9695280
  53.9079470  66.3481940  36.4826500  54.1828310  67.2560820  36.3545720
  53.7190210  66.2844470  37.4188490  50.3055080  59.3726790  37.7780130
  50.7239960  59.1857770  36.9376790  49.9991140  58.5205840  38.0883060
  53.8044810  64.2850930  41.4755930  53.4288410  63.5178860  41.0437220
  53.0747930  64.6673630  41.9630860  38.3940570  64.9638070  48.0964980
  38.7613610  64.8765470  48.9761000  37.8251390  64.2004620  47.9971840
  53.1944430  63.4322450  51.1095450  52.9630520  63.2035200  50.2093400
  53.4548980  64.3522000  51.0640340  37.9456570  61.8747160  52.0023400
  37.0512620  61.8413920  52.3417110  38.4854120  62.0733950  52.7674650
  51.6332500  58.6578880  53.8875150  52.5102680  58.6662280  54.2709150
  51.6453340  57.9209720  53.2767500  36.5702720  61.7884430  39.4986970
  35.6666800  62.0514630  39.3238630  37.0543340  62.0595600  38.7186930
  53.0795770  62.5108420  44.7763170  53.6033250  62.0171070  44.1453340
  53.6655190  62.6458780  45.5210740  53.2585490  62.5948290  48.2982720
  52.3088200  62.5611830  48.4127710  53.4398500  63.5048400  48.0632490
  39.1129930  60.8449970  37.4081350  39.8221630  60.4233190  36.9228630
  38.3969870  60.9125200  36.7764700  38.7604090  56.8989300  36.4484000
  39.4832220  57.4398240  36.7665220  39.0328610  56.6252720  35.5725540
  52.5695740  61.7681770  40.7155580  53.0654860  61.5352640  41.5004460
  52.3711810  60.9293610  40.2993220  38.4496280  56.1495490  46.3506620
  39.0972470  55.5992870  45.9101780  38.8698120  56.4038640  47.1722430
  53.9982900  60.4042720  43.2493260  53.8882180  60.2498760  44.1875530
  54.7590490  59.8763660  43.0068670  52.3448620  56.3436850  49.7076260
  52.9820840  56.9570990  50.0735450  52.4923510  56.3797510  48.7625490
  54.8873170  58.2350640  36.4899400  55.8122480  58.1031820  36.2817690
  54.8648960  58.3143460  37.4435850  54.9611660  59.0061300  39.1156110
  54.1663160  58.9406420  39.6449020  55.1654940  59.9411940  39.1041460
  38.2028280  56.3051160  49.0931940  37.8543100  56.7614980  49.8590120
  37.8715980  55.4108290  49.1754370  39.8092650  69.4770760  53.2585130
  39.7662280  69.1063670  54.1399590  39.9403660  70.4148330  53.3986950
  43.5098680  71.0330350  48.8594850  43.2690040  71.3004910  47.9725370
  44.4501320  71.2036080  48.9145710  45.7153100  57.4963040  52.6151360
  45.6541990  58.0884870  53.3646770  46.6553480  57.3889000  52.4701620
  48.3527660  57.1533100  52.2543650  48.9668070  57.4712390  51.5924730
  48.8977220  56.6681690  52.8739510  38.8748920  55.8327360  52.3682710
  39.4231910  55.6515410  51.6048820  38.9404230  55.0421470  52.9039020
  49.0935700  55.7165240  48.5812940  48.2195540  56.0500350  48.3785870
  48.9846450  55.2438420  49.4064810  50.0007680  57.9236110  49.9654660
  49.6721040  57.1087870  49.5856390  50.9489980  57.8805920  49.8420350
  39.2792910  69.7891390  49.3290950  38.5526970  69.1696680  49.2616900
  39.3402060  70.1832000  48.4589030  46.8410520  56.6335080  47.5205850
  46.0582310  57.1080580  47.8002610  46.5473450  55.7289910  47.4119030
  51.3931590  57.3358180  45.5654940  51.8339680  57.2803280  44.7176540
  51.1239180  58.2516190  45.6365120  53.2570160  56.9673420  43.5763760
  53.1958560  56.0234640  43.4294780  54.0362190  57.0753510  44.1217220
  38.1850930  56.9382560  40.0419570  38.9430290  57.0511440  39.4683600
  37.7228100  57.7751760  39.9963000  44.7264740  59.0521830  43.0321880
  43.9139250  58.6778720  42.6917760  45.2306380  58.2966910  43.3343070
  49.2289720  55.7164280  44.2704950  49.8319090  56.2884490  44.7453470
  48.4882710  56.2803720  44.0478850  52.3724320  56.1185840  39.5445230
  52.5674950  57.0169290  39.8112660  51.5854190  55.8872920  40.0378180
  40.5576080  57.4646610  38.5821540  41.0868840  56.6776410  38.4529490
  41.1904400  58.1437800  38.8157070  42.7513920  57.2021750  41.6366930
  42.1216660  56.5009060  41.8037060  42.2119060  57.9625880  41.4200090
  42.8769480  56.4805730  54.0719420  42.5953750  56.9839330  53.3080240
  43.2589180  55.6827480  53.7061550  40.9293370  69.8646120  38.8633430
  40.3002250  70.3331220  39.4119260  41.0441200  69.0195340  39.2979620
  49.4784940  55.8959310  54.6499890  49.3650390  56.2153920  55.5451410
  50.2954680  56.2971820  54.3537170  48.3843090  63.9151780  25.0134630
  48.3037140  63.0006390  24.7426340  47.9707510  64.4118850  24.3074340
  46.5161130  65.6930800  26.8943900  45.7403230  65.2131240  27.1842470
  47.1674060  65.0136450  26.7200060  40.5326960  66.0050610  27.7719660
  39.7011840  65.7499320  28.1716170  41.1407940  66.0761380  28.5077580
  50.5368560  70.0990990  25.6743030  50.0750090  69.3278230  26.0030200
  51.3494110  70.1257060  26.1795480  40.5128220  70.0390700  27.9677680
  40.8156260  69.1488440  27.7887900  41.2571810  70.5960920  27.7399930
  38.9418910  60.9652500  21.5562050  38.0535610  61.3068470  21.4541930
  39.2260100  60.7652820  20.6642880  36.9051920  63.5658150  27.4401750
  37.4768030  62.7980350  27.4405390  36.9053460  63.8646910  26.5308360
  45.9570120  68.3687990  26.9014060  45.8878400  67.4277930  26.7403190
  46.7189980  68.4589400  27.4736630  38.1476790  58.9742510  29.2270680
  37.9679630  58.0768260  29.5073440  37.7456870  59.5214380  29.9017630
  46.9875290  61.1758370  27.1282990  47.3640110  60.3030250  27.0156660
  46.8894800  61.5117070  26.2373430  41.1180300  59.5484000  22.5900430
  41.2247050  60.4487730  22.8969190  40.2072660  59.5001970  22.2995080
  50.7699410  58.6708810  24.0611330  51.5909030  58.1805380  24.1036810
  50.8033490  59.2606470  24.8143170  38.7663460  61.4703010  27.8353020
  39.4473570  61.7341380  28.4540420  38.4511510  60.6303880  28.1691030
  42.9588030  62.5170370  26.9225610  43.4666250  63.0151340  27.5630630
  43.4901270  61.7405570  26.7464970  55.0598960  60.6875560  30.6254960
  54.3551130  61.0757270  30.1070070  55.3256880  61.3825850  31.2275890
  41.2424130  57.1568930  31.1889030  41.2442570  57.6741320  30.3834930
  40.4128440  56.6799110  31.1658960  47.6295220  67.2688240  22.6878930
  47.0112490  67.7337690  22.1241650  48.1418470  67.9615720  23.1048440
  42.4926980  66.7964110  29.3662530  42.1596360  67.4233030  30.0083600
  42.6693660  67.3225990  28.5864200  51.0060890  60.6109190  26.8338870
  50.3016460  60.8994080  27.4141980  51.3673050  61.4209300  26.4738430
  40.9239460  58.8678890  29.1959480  41.2656270  59.7120940  28.9013350
  39.9855270  59.0162630  29.3124820  41.7046080  68.7644910  31.1811710
  42.3220080  69.4395990  30.8996160  40.8439200  69.1732890  31.0899210
  36.9978420  67.9544770  20.0618560  36.6206400  68.4431870  19.3303460
  37.2551490  68.6270050  20.6925090  52.6223670  70.2284320  29.0966350
  51.9387190  70.8983430  29.0883020  53.1617960  70.4264970  28.3311210
  54.0747810  60.0563980  27.2248080  53.1272720  60.0902960  27.3563510
  54.3997800  60.8702930  27.6097440  44.6067350  56.3561160  25.5204070
  44.9142330  55.8008050  24.8039570  43.6768050  56.4905620  25.3377060
  51.4527830  68.7944670  22.9001700  51.3424160  67.8519000  23.0251120
  51.4496080  69.1560310  23.7864460  49.5567850  66.9758290  29.1394140
  49.9736640  66.7618400  28.3047600  50.2807670  67.2331080  29.7102760
  46.9948110  64.4209990  22.2564190  46.0677390  64.3547370  22.4852660
  47.1472930  65.3590120  22.1419430  46.9817190  60.6926990  19.2531350
  46.0420860  60.8540950  19.3383810  47.3000450  61.4112670  18.7067340
  53.5029950  65.3745510  29.2310380  52.6748580  65.4438600  28.7560510
  54.0980430  65.9599820  28.7626210  51.0245400  65.9830290  22.7599440
  50.4057820  65.6449840  22.1125740  51.0069850  65.3390050  23.4678630
  50.4671960  62.1614830  30.1765250  50.0543140  62.9868540  30.4305240
  49.7347910  61.5759870  29.9841610  42.6004750  64.9474730  25.0383920
  42.1961750  64.2351980  24.5429820  42.6867870  64.6027970  25.9271960
  43.0686450  68.6342290  27.2023130  42.7714740  68.0287760  26.5230910
  44.0186270  68.6719600  27.0912490  41.3133370  61.7217940  28.8182960
  41.8647960  61.8313280  28.0436210  41.8276880  62.0955540  29.5338190
  42.1604880  68.3723980  33.8530930  41.2633410  68.5963950  34.1004330
  42.1857750  68.4958920  32.9042330  49.2010100  65.2217100  19.7672190
  49.6403380  64.3839530  19.6210010  49.9138520  65.8546500  19.8536330
  40.9876100  65.2437300  32.4288300  40.8483870  66.1160100  32.7975700
  40.1057460  64.9010110  32.2836240  47.3105480  70.1613170  23.7353430
  47.7501390  70.9037500  23.3208820  47.2492370  70.4039740  24.6592390
  52.7827240  56.4759910  18.0813230  52.4699900  56.5686740  18.9812300
  53.5439710  57.0540940  18.0310660  39.3009380  63.8419710  22.5390570
  39.1806980  64.5681800  21.9271840  38.9910270  63.0722620  22.0618480
  36.9394750  67.0134850  28.3459210  37.0175170  67.1483620  27.4014930
  37.5536430  66.3050740  28.5387330  38.1842380  68.7135040  24.7565390
  37.7770460  68.8549630  23.9018990  39.0755390  68.4295200  24.5536600
  54.1404520  69.1598950  33.0937630  54.2667580  68.9210830  32.1754810
  54.1825900  68.3283490  33.5659710  49.6801790  70.6569850  19.6514440
  48.9866950  70.6547140  18.9916720  50.4224650  70.2329170  19.2208610
  53.9928530  61.2131410  34.0587370  53.3772800  61.7211080  33.5302830
  53.6724950  60.3129740  34.0013310  36.9954270  68.0549020  30.8853670
  37.1585310  67.5854380  30.0673040  37.4606720  67.5472580  31.5502510
  41.7673040  57.1854780  25.9214240  41.3241190  57.9664320  25.5898760
  42.3258030  57.5084670  26.6285180  46.0542850  60.0523300  31.5249560
  45.5922220  60.2606320  32.3369500  45.6520960  59.2382650  31.2220230
  51.0547360  61.2732250  32.6546220  50.2040950  60.9738000  32.9755290
  50.8949150  61.5174260  31.7430040  48.1497070  62.7734000  34.7545010
  48.4750480  61.9397750  34.4147240  48.9377400  63.2962520  34.9023340
  44.8831860  56.8065480  20.8020070  44.2586040  56.8025350  21.5273380
  44.7961980  55.9396440  20.4056040  43.8048940  57.7302110  27.7803840
  44.1021270  58.6364940  27.6995860  44.3534500  57.2420890  27.1663410
  41.5587260  62.3088350  23.6495490  41.3328180  62.0925520  24.5542110
  40.7779790  62.7416810  23.3041460  48.7885020  62.3151720  22.2486140
  48.1893910  63.0387520  22.0649760  49.3364630  62.2528500  21.4662590
  43.9986470  63.2073930  34.3155760  43.9030070  62.2668660  34.1656160
  44.8418450  63.4289000  33.9203830  47.3949890  60.9515260  24.2789420
  47.7879460  61.2687460  23.4658110  47.7566740  60.0727140  24.3933940
  39.1297010  59.6187600  32.4689540  38.7360400  60.4662810  32.6762320
  38.4415410  58.9813970  32.6598180  45.7042060  59.7022570  35.5386280
  45.0140380  59.5094770  36.1732370  46.4474360  59.9857210  36.0710580
  36.4314060  57.5416060  26.5019620  36.1427110  58.1118920  27.2144600
  37.1759820  57.0620510  26.8650850  36.6184290  61.4836180  17.7122340
  36.5358960  62.4266940  17.8537330  36.2667350  61.3411090  16.8334690
  47.9805030  63.5421010  28.3740200  47.2486150  64.0507820  28.7230300
  47.5829370  62.7250990  28.0728980  44.4182420  60.2175210  26.7792690
  44.4218480  59.7765160  25.9297230  45.3133540  60.5392540  26.8864510
  40.2684800  60.1001700  25.7386900  39.9284850  60.5776930  26.4953950
  39.5062120  59.6466820  25.3788000  44.4802570  61.2187290  19.7699450
  44.6015390  61.1773770  20.7185270  44.0951080  62.0811440  19.6146180
  48.4430940  58.9954690  27.7863140  48.4603680  59.4463340  28.6304990
  48.1946520  58.0960330  27.9996580  43.4924070  63.5288430  19.1682750
  42.9240970  63.0806680  18.5418660  44.2013070  63.8881210  18.6347900
  51.8701690  56.4086870  33.6249520  52.1947460  55.6776530  34.1507500
  51.9058200  56.0900510  32.7230510  38.5693250  67.4300450  33.0449480
  38.1848040  66.7894120  33.6432440  38.8805440  68.1336570  33.6144210
  44.7190390  64.2776990  28.5258100  45.0860520  63.8035560  29.2719440
  44.5295450  65.1518560  28.8666440  37.5830880  59.0220680  24.6551570
  37.2977800  58.6576350  25.4930190  37.5209740  58.2901140  24.0414710
  42.5089760  63.3185630  30.8442310  42.2046830  64.1977610  31.0692670
  43.4636220  63.3785420  30.8799750  41.0371550  67.5246620  21.4409160
  40.2633810  66.9844240  21.2807880  41.7666180  67.0053230  21.1026920
  51.7959530  66.5211980  27.2335550  52.5158650  67.0167270  26.8431660
  51.5941350  65.8429870  26.5889420  47.2569470  57.9149940  21.3764940
  46.4434080  57.4163110  21.3010250  47.0631420  58.7548190  20.9601290
  47.1778330  66.5921040  33.1204550  47.1115640  65.6716710  32.8662140
  46.5483470  66.6896480  33.8349190  49.9717860  62.2869590  19.6727100
  50.8597480  62.5986820  19.4978440  49.9422950  61.4141840  19.2807680
  41.0808950  67.1927000  25.0787970  41.5987620  66.3895260  25.0244860
  40.6292970  67.1306140  25.9204800  45.9678450  68.4593280  20.3515270
  46.3094150  69.2035510  19.8558590  45.1391160  68.7724400  20.7140100
  38.5653490  64.1588370  31.9913670  38.2068430  64.8242220  32.5787010
  38.2708050  63.3271920  32.3626290  41.7666610  64.6172610  34.8753220
  41.4666750  64.7629790  33.9781040  42.5377850  64.0577900  34.7826610
  47.1095060  69.4141610  32.8708350  47.1239600  68.4822570  32.6527260
  46.4020160  69.5001370  33.5098120  52.2432130  63.5981430  19.1406960
  52.1595850  64.0295650  18.2903400  52.9626320  64.0579780  19.5733780
  53.3206270  66.0548950  32.2176930  52.5954460  66.6477730  32.0206320
  53.8481730  66.0472490  31.4190300  53.2719380  70.4523690  21.8689090
  52.6295540  69.7979310  22.1432810  52.8850040  70.8578780  21.0929760
  48.8505860  67.7809120  25.7160780  49.2029680  67.1837250  25.0562150
  47.9668190  67.4553350  25.8869030  44.9369140  68.5406810  23.1231190
  45.6240270  69.0876020  23.5038780  44.1501560  69.0847540  23.1580800
  37.0761540  64.1579630  18.6148270  37.9456390  64.4404430  18.8984190
  36.5851860  64.9715500  18.4997080  44.2396350  65.5452840  22.7356550
  44.6959130  66.3558090  22.9616740  43.8884560  65.2275980  23.5675040
  46.5428960  71.0559180  29.9648850  47.1871180  71.2618560  30.6422270
  46.9058400  70.2947580  29.5119700  40.1408130  55.8890490  23.2079070
  40.0122760  55.8808390  24.1563990  39.3170150  56.2273580  22.8570080
  47.8161040  69.0591530  28.6826300  48.4583270  68.3584690  28.7958470
  48.3410390  69.8389970  28.5023190  51.6616760  69.3440150  18.4065440
  51.4354340  68.6270590  18.9990080  51.2712960  69.0952590  17.5687190
  49.5898660  69.8586430  31.8862360  49.9254900  70.4453120  32.5640280
  48.6699000  69.7279140  32.1160150  37.1402060  57.6481610  32.6685770
  36.4260580  57.8478530  33.2738380  37.5597100  56.8721180  33.0400570
  51.2433010  67.2612090  20.0679600  50.9554710  67.7224780  20.8557480
  52.0385180  66.8009860  20.3363820  45.4187240  69.9077760  35.0550420
  45.0984110  69.1887000  35.5996110  44.7445600  70.5832830  35.1286480
  43.4601410  70.7538210  19.9983570  43.4511510  71.4867900  19.3828080
  42.5399770  70.5069790  20.0910530  39.0608050  65.9753100  20.7430330
  38.4536000  66.7152000  20.7525630  39.5357400  66.0652460  19.9168530
  48.6340840  60.1403920  30.4187220  49.0021660  59.3199130  30.7466790
  47.7739040  60.2005810  30.8342870  52.0002870  59.0960860  21.2274780
  51.3716030  59.2006530  20.5133010  51.5054790  59.3157640  22.0168660
  46.4461010  70.8166450  18.6608760  46.5472990  70.6130440  17.7310740
  45.5462750  70.5624730  18.8656540  43.9686900  61.3746810  22.6432660
  43.2603050  61.8433150  23.0846270  44.2531380  60.7168820  23.2777850
  45.5942830  62.7943510  30.6425190  46.0928080  63.2689330  31.3077040
  45.7365780  61.8707030  30.8495220  48.0002330  58.0997470  24.0828450
  47.8770110  58.1183600  23.1337960  48.9486890  58.1476410  24.2026850
  42.1721920  59.6831890  20.0183370  43.0212450  60.1202040  19.9523560
  41.8053190  59.9952150  20.8455430  52.8009690  59.0111470  31.4853580
  52.2983290  59.7516870  31.8247390  53.6166350  59.3995470  31.1690370
  51.0931700  64.2544650  24.9314940  50.1521840  64.2694880  25.1062630
  51.4075770  63.4680610  25.3775240  41.0713340  65.9364250  18.4918900
  41.8376610  65.8245610  19.0544330  41.1488030  65.2402220  17.8395670
  39.7660100  63.3689320  19.1751790  39.8463690  62.4216830  19.2869190
  40.6579850  63.6996200  19.2812450  37.4520290  69.5858280  22.1527840
  36.5260070  69.8279420  22.1433250  37.9176720  70.4132540  22.0312590
  48.4097720  68.8110650  35.4147320  47.8035880  68.8342250  34.6743070
  48.1051830  68.0793690  35.9514570  37.2930900  65.1904240  34.4107960
  37.7969920  64.6111520  34.9824190  36.5538320  65.4744470  34.9484330
  44.1954520  67.9118430  17.9654250  44.0905160  67.2970780  18.6915630
  44.0278740  67.3884320  17.1817260  44.3468840  66.5975230  33.9443480
  43.5814510  67.1660230  33.8598150  44.5284800  66.3051440  33.0511710
  47.4357250  66.9738460  18.5696240  46.8867350  67.4207760  19.2138980
  48.0576510  66.4687710  19.0933910  51.4892190  68.3280560  34.5018500
  52.2301660  68.6656320  33.9985960  50.7264870  68.4972620  33.9488270
  39.3253980  63.3333830  35.3058030  39.3659320  63.0347700  36.2143260
  40.1799480  63.7341440  35.1465550  43.1032370  65.9329380  20.4661540
  43.5248790  65.7669250  21.3092930  43.2283210  65.1229610  19.9716680
  41.2659790  61.9125930  33.2732520  40.7356250  61.4216880  32.6455860
  41.9347860  62.3410130  32.7390450  45.6160010  64.9566990  17.7138640
  46.1365670  64.2416010  17.3479790  46.2628410  65.5952860  18.0139150
  50.1637850  66.3795390  33.0373710  50.5778870  66.5340470  33.8864130
  49.2288850  66.5050610  33.1999490  50.6360020  63.7191550  35.0412860
  51.2180790  62.9643870  34.9533340  50.8121790  64.2498990  34.2644340
  41.7532090  58.8788300  33.3529810  41.6588960  58.2609050  32.6280680
  41.1729480  59.6054590  33.1259720  44.5193530  57.4361540  30.3857200
  44.0710830  57.4585800  29.5402750  43.8858730  57.0380560  30.9827500
  44.9253080  66.3315870  31.0069640  45.3441190  67.1748600  30.8345880
  44.0061710  66.4687910  30.7776420  47.2616980  64.0632050  32.3907480
  47.3813190  63.4673190  33.1302320  48.1210980  64.1001740  31.9708780
  49.6004880  64.6169240  30.9669990  49.0740100  65.1411860  30.3635130
  49.9436220  65.2496630  31.5979720  41.9991270  62.0062610  17.4119700
  41.7980330  61.1429970  17.7733040  41.8283320  61.9195970  16.4741300
  44.0285750  60.6053400  33.6483300  44.6185440  60.2969250  34.3361120
  43.2105990  60.1333150  33.8043200  48.8479180  60.2219210  33.8816320
  48.1594700  59.5600750  33.8166310  49.5685200  59.7757480  34.3264780
  49.4779580  56.8170840  19.9406580  49.7581870  55.9738740  20.2966000
  48.7045310  57.0493950  20.4545330  40.7974070  59.1063230  17.3997580
  41.0999970  59.1130660  16.4916730  41.5368660  58.7561090  17.8965240
  44.0159000  58.0497850  18.3853780  43.6681000  57.3721840  17.8056230
  44.2171770  57.5887360  19.1997170  39.8204200  68.4105650  18.2327380
  40.2579070  68.9535320  18.8884960  40.3051930  67.5852600  18.2423720
  37.0350000  71.1994680  25.6847640  37.3653010  70.3315740  25.4526280
  37.4641000  71.4053200  26.5152600  41.6311920  69.5303690  23.3449610
  41.3307460  69.4068660  24.2453520  41.5249410  68.6712280  22.9365340
  54.4003840  69.3100090  18.0476290  53.5696800  69.3776740  18.5183520
  54.5775670  70.2004210  17.7443150  53.8560300  66.0547570  20.5510490
  54.6179210  66.6244220  20.6570180  53.8714670  65.4874770  21.3218800
  37.3564640  64.5785500  24.7818150  36.7013480  64.3097140  24.1377850
  38.1942590  64.4689980  24.3320130  54.8620270  66.9097670  25.3952420
  55.2329100  66.1264990  24.9888390  55.5022200  67.5986770  25.2169720
  51.8454030  68.2934250  30.8082740  51.0313870  68.7231410  31.0708530
  52.2528230  68.9052660  30.1951790  53.9079470  66.3481940  17.7083010
  54.1828310  67.2560820  17.5802230  53.7190210  66.2844470  18.6445000
  50.3055080  59.3726790  19.0036640  50.7239960  59.1857770  18.1633300
  49.9991140  58.5205840  19.3139570  53.8044810  64.2850930  22.7012440
  53.4288410  63.5178860  22.2693730  53.0747930  64.6673630  23.1887370
  38.3940570  64.9638070  29.3221490  38.7613610  64.8765470  30.2017510
  37.8251390  64.2004620  29.2228350  53.1944430  63.4322450  32.3351960
  52.9630520  63.2035200  31.4349910  53.4548980  64.3522000  32.2896850
  37.9456570  61.8747160  33.2279910  37.0512620  61.8413920  33.5673620
  38.4854120  62.0733950  33.9931160  51.6332500  58.6578880  35.1131660
  52.5102680  58.6662280  35.4965660  51.6453340  57.9209720  34.5024010
  36.5702720  61.7884430  20.7243480  35.6666800  62.0514630  20.5495140
  37.0543340  62.0595600  19.9443440  53.0795770  62.5108420  26.0019680
  53.6033250  62.0171070  25.3709850  53.6655190  62.6458780  26.7467250
  53.2585490  62.5948290  29.5239230  52.3088200  62.5611830  29.6384220
  53.4398500  63.5048400  29.2889000  39.1129930  60.8449970  18.6337860
  39.8221630  60.4233190  18.1485140  38.3969870  60.9125200  18.0021210
  38.7604090  56.8989300  17.6740510  39.4832220  57.4398240  17.9921730
  39.0328610  56.6252720  16.7982050  52.5695740  61.7681770  21.9412090
  53.0654860  61.5352640  22.7260970  52.3711810  60.9293610  21.5249730
  38.4496280  56.1495490  27.5763130  39.0972470  55.5992870  27.1358290
  38.8698120  56.4038640  28.3978940  53.9982900  60.4042720  24.4749770
  53.8882180  60.2498760  25.4132040  54.7590490  59.8763660  24.2325180
  52.3448620  56.3436850  30.9332770  52.9820840  56.9570990  31.2991960
  52.4923510  56.3797510  29.9882000  54.8873170  58.2350640  17.7155910
  55.8122480  58.1031820  17.5074200  54.8648960  58.3143460  18.6692360
  54.9611660  59.0061300  20.3412620  54.1663160  58.9406420  20.8705530
  55.1654940  59.9411940  20.3297970  38.2028280  56.3051160  30.3188450
  37.8543100  56.7614980  31.0846630  37.8715980  55.4108290  30.4010880
  39.8092650  69.4770760  34.4841640  39.7662280  69.1063670  35.3656100
  39.9403660  70.4148330  34.6243460  43.5098680  71.0330350  30.0851360
  43.2690040  71.3004910  29.1981880  44.4501320  71.2036080  30.1402220
  45.7153100  57.4963040  33.8407870  45.6541990  58.0884870  34.5903280
  46.6553480  57.3889000  33.6958130  48.3527660  57.1533100  33.4800160
  48.9668070  57.4712390  32.8181240  48.8977220  56.6681690  34.0996020
  38.8748920  55.8327360  33.5939220  39.4231910  55.6515410  32.8305330
  38.9404230  55.0421470  34.1295530  49.0935700  55.7165240  29.8069450
  48.2195540  56.0500350  29.6042380  48.9846450  55.2438420  30.6321320
  50.0007680  57.9236110  31.1911170  49.6721040  57.1087870  30.8112900
  50.9489980  57.8805920  31.0676860  39.2792910  69.7891390  30.5547460
  38.5526970  69.1696680  30.4873410  39.3402060  70.1832000  29.6845540
  46.8410520  56.6335080  28.7462360  46.0582310  57.1080580  29.0259120
  46.5473450  55.7289910  28.6375540  51.3931590  57.3358180  26.7911450
  51.8339680  57.2803280  25.9433050  51.1239180  58.2516190  26.8621630
  53.2570160  56.9673420  24.8020270  53.1958560  56.0234640  24.6551290
  54.0362190  57.0753510  25.3473730  38.1850930  56.9382560  21.2676080
  38.9430290  57.0511440  20.6940110  37.7228100  57.7751760  21.2219510
  44.7264740  59.0521830  24.2578390  43.9139250  58.6778720  23.9174270
  45.2306380  58.2966910  24.5599580  49.2289720  55.7164280  25.4961460
  49.8319090  56.2884490  25.9709980  48.4882710  56.2803720  25.2735360
  52.3724320  56.1185840  20.7701740  52.5674950  57.0169290  21.0369170
  51.5854190  55.8872920  21.2634690  40.5576080  57.4646610  19.8078050
  41.0868840  56.6776410  19.6786000  41.1904400  58.1437800  20.0413580
  42.7513920  57.2021750  22.8623440  42.1216660  56.5009060  23.0293570
  42.2119060  57.9625880  22.6456600  42.8769480  56.4805730  35.2975930
  42.5953750  56.9839330  34.5336750  43.2589180  55.6827480  34.9318060
  40.9293370  69.8646120  20.0889940  40.3002250  70.3331220  20.6375770
  41.0441200  69.0195340  20.5236130  49.4784940  55.8959310  35.8756400
  49.3650390  56.2153920  36.7707920  50.2954680  56.2971820  35.5793680
  48.3843090  63.9151780   6.2391140  48.3037140  63.0006390   5.9682850
  47.9707510  64.4118850   5.5330850  46.5161130  65.6930800   8.1200410
  45.7403230  65.2131240   8.4098980  47.1674060  65.0136450   7.9456570
  40.5326960  66.0050610   8.9976170  39.7011840  65.7499320   9.3972680
  41.1407940  66.0761380   9.7334090  50.5368560  70.0990990   6.8999540
  50.0750090  69.3278230   7.2286710  51.3494110  70.1257060   7.4051990
  40.5128220  70.0390700   9.1934190  40.8156260  69.1488440   9.0144410
  41.2571810  70.5960920   8.9656440  38.9418910  60.9652500   2.7818560
  38.0535610  61.3068470   2.6798440  39.2260100  60.7652820   1.8899390
  36.9051920  63.5658150   8.6658260  37.4768030  62.7980350   8.6661900
  36.9053460  63.8646910   7.7564870  45.9570120  68.3687990   8.1270570
  45.8878400  67.4277930   7.9659700  46.7189980  68.4589400   8.6993140
  38.1476790  58.9742510  10.4527190  37.9679630  58.0768260  10.7329950
  37.7456870  59.5214380  11.1274140  46.9875290  61.1758370   8.3539500
  47.3640110  60.3030250   8.2413170  46.8894800  61.5117070   7.4629940
  41.1180300  59.5484000   3.8156940  41.2247050  60.4487730   4.1225700
  40.2072660  59.5001970   3.5251590  50.7699410  58.6708810   5.2867840
  51.5909030  58.1805380   5.3293320  50.8033490  59.2606470   6.0399680
  38.7663460  61.4703010   9.0609530  39.4473570  61.7341380   9.6796930
  38.4511510  60.6303880   9.3947540  42.9588030  62.5170370   8.1482120
  43.4666250  63.0151340   8.7887140  43.4901270  61.7405570   7.9721480
  55.0598960  60.6875560  11.8511470  54.3551130  61.0757270  11.3326580
  55.3256880  61.3825850  12.4532400  41.2424130  57.1568930  12.4145540
  41.2442570  57.6741320  11.6091440  40.4128440  56.6799110  12.3915470
  47.6295220  67.2688240   3.9135440  47.0112490  67.7337690   3.3498160
  48.1418470  67.9615720   4.3304950  42.4926980  66.7964110  10.5919040
  42.1596360  67.4233030  11.2340110  42.6693660  67.3225990   9.8120710
  51.0060890  60.6109190   8.0595380  50.3016460  60.8994080   8.6398490
  51.3673050  61.4209300   7.6994940  40.9239460  58.8678890  10.4215990
  41.2656270  59.7120940  10.1269860  39.9855270  59.0162630  10.5381330
  41.7046080  68.7644910  12.4068220  42.3220080  69.4395990  12.1252670
  40.8439200  69.1732890  12.3155720  52.6223670  70.2284320  10.3222860
  51.9387190  70.8983430  10.3139530  53.1617960  70.4264970   9.5567720
  54.0747810  60.0563980   8.4504590  53.1272720  60.0902960   8.5820020
  54.3997800  60.8702930   8.8353950  44.6067350  56.3561160   6.7460580
  44.9142330  55.8008050   6.0296080  43.6768050  56.4905620   6.5633570
  51.4527830  68.7944670   4.1258210  51.3424160  67.8519000   4.2507630
  51.4496080  69.1560310   5.0120970  49.5567850  66.9758290  10.3650650
  49.9736640  66.7618400   9.5304110  50.2807670  67.2331080  10.9359270
  46.9948110  64.4209990   3.4820700  46.0677390  64.3547370   3.7109170
  47.1472930  65.3590120   3.3675940  53.5029950  65.3745510  10.4566890
  52.6748580  65.4438600   9.9817020  54.0980430  65.9599820   9.9882720
  51.0245400  65.9830290   3.9855950  50.4057820  65.6449840   3.3382250
  51.0069850  65.3390050   4.6935140  50.4671960  62.1614830  11.4021760
  50.0543140  62.9868540  11.6561750  49.7347910  61.5759870  11.2098120
  42.6004750  64.9474730   6.2640430  42.1961750  64.2351980   5.7686330
  42.6867870  64.6027970   7.1528470  43.0686450  68.6342290   8.4279640
  42.7714740  68.0287760   7.7487420  44.0186270  68.6719600   8.3169000
  41.3133370  61.7217940  10.0439470  41.8647960  61.8313280   9.2692720
  41.8276880  62.0955540  10.7594700  42.1604880  68.3723980  15.0787440
  41.2633410  68.5963950  15.3260840  42.1857750  68.4958920  14.1298840
  40.9876100  65.2437300  13.6544810  40.8483870  66.1160100  14.0232210
  40.1057460  64.9010110  13.5092750  47.3105480  70.1613170   4.9609940
  47.7501390  70.9037500   4.5465330  47.2492370  70.4039740   5.8848900
  39.3009380  63.8419710   3.7647080  39.1806980  64.5681800   3.1528350
  38.9910270  63.0722620   3.2874990  36.9394750  67.0134850   9.5715720
  37.0175170  67.1483620   8.6271440  37.5536430  66.3050740   9.7643840
  38.1842380  68.7135040   5.9821900  37.7770460  68.8549630   5.1275500
  39.0755390  68.4295200   5.7793110  54.1404520  69.1598950  14.3194140
  54.2667580  68.9210830  13.4011320  54.1825900  68.3283490  14.7916220
  53.9928530  61.2131410  15.2843880  53.3772800  61.7211080  14.7559340
  53.6724950  60.3129740  15.2269820  36.9954270  68.0549020  12.1110180
  37.1585310  67.5854380  11.2929550  37.4606720  67.5472580  12.7759020
  41.7673040  57.1854780   7.1470750  41.3241190  57.9664320   6.8155270
  42.3258030  57.5084670   7.8541690  46.0542850  60.0523300  12.7506070
  45.5922220  60.2606320  13.5626010  45.6520960  59.2382650  12.4476740
  51.0547360  61.2732250  13.8802730  50.2040950  60.9738000  14.2011800
  50.8949150  61.5174260  12.9686550  48.1497070  62.7734000  15.9801520
  48.4750480  61.9397750  15.6403750  48.9377400  63.2962520  16.1279850
  43.8048940  57.7302110   9.0060350  44.1021270  58.6364940   8.9252370
  44.3534500  57.2420890   8.3919920  41.5587260  62.3088350   4.8752000
  41.3328180  62.0925520   5.7798620  40.7779790  62.7416810   4.5297970
  48.7885020  62.3151720   3.4742650  48.1893910  63.0387520   3.2906270
  49.3364630  62.2528500   2.6919100  43.9986470  63.2073930  15.5412270
  43.9030070  62.2668660  15.3912670  44.8418450  63.4289000  15.1460340
  47.3949890  60.9515260   5.5045930  47.7879460  61.2687460   4.6914620
  47.7566740  60.0727140   5.6190450  39.1297010  59.6187600  13.6946050
  38.7360400  60.4662810  13.9018830  38.4415410  58.9813970  13.8854690
  45.7042060  59.7022570  16.7642790  45.0140380  59.5094770  17.3988880
  46.4474360  59.9857210  17.2967090  36.4314060  57.5416060   7.7276130
  36.1427110  58.1118920   8.4401110  37.1759820  57.0620510   8.0907360
  47.9805030  63.5421010   9.5996710  47.2486150  64.0507820   9.9486810
  47.5829370  62.7250990   9.2985490  44.4182420  60.2175210   8.0049200
  44.4218480  59.7765160   7.1553740  45.3133540  60.5392540   8.1121020
  40.2684800  60.1001700   6.9643410  39.9284850  60.5776930   7.7210460
  39.5062120  59.6466820   6.6044510  48.4430940  58.9954690   9.0119650
  48.4603680  59.4463340   9.8561500  48.1946520  58.0960330   9.2253090
  51.8701690  56.4086870  14.8506030  52.1947460  55.6776530  15.3764010
  51.9058200  56.0900510  13.9487020  38.5693250  67.4300450  14.2705990
  38.1848040  66.7894120  14.8688950  38.8805440  68.1336570  14.8400720
  44.7190390  64.2776990   9.7514610  45.0860520  63.8035560  10.4975950
  44.5295450  65.1518560  10.0922950  37.5830880  59.0220680   5.8808080
  37.2977800  58.6576350   6.7186700  37.5209740  58.2901140   5.2671220
  42.5089760  63.3185630  12.0698820  42.2046830  64.1977610  12.2949180
  43.4636220  63.3785420  12.1056260  41.0371550  67.5246620   2.6665670
  40.2633810  66.9844240   2.5064390  41.7666180  67.0053230   2.3283430
  51.7959530  66.5211980   8.4592060  52.5158650  67.0167270   8.0688170
  51.5941350  65.8429870   7.8145930  47.2569470  57.9149940   2.6021450
  46.4434080  57.4163110   2.5266760  47.0631420  58.7548190   2.1857800
  47.1778330  66.5921040  14.3461060  47.1115640  65.6716710  14.0918650
  46.5483470  66.6896480  15.0605700  41.0808950  67.1927000   6.3044480
  41.5987620  66.3895260   6.2501370  40.6292970  67.1306140   7.1461310
  38.5653490  64.1588370  13.2170180  38.2068430  64.8242220  13.8043520
  38.2708050  63.3271920  13.5882800  41.7666610  64.6172610  16.1009730
  41.4666750  64.7629790  15.2037550  42.5377850  64.0577900  16.0083120
  47.1095060  69.4141610  14.0964860  47.1239600  68.4822570  13.8783770
  46.4020160  69.5001370  14.7354630  53.3206270  66.0548950  13.4433440
  52.5954460  66.6477730  13.2462830  53.8481730  66.0472490  12.6446810
  53.2719380  70.4523690   3.0945600  52.6295540  69.7979310   3.3689320
  52.8850040  70.8578780   2.3186270  48.8505860  67.7809120   6.9417290
  49.2029680  67.1837250   6.2818660  47.9668190  67.4553350   7.1125540
  44.9369140  68.5406810   4.3487700  45.6240270  69.0876020   4.7295290
  44.1501560  69.0847540   4.3837310  44.2396350  65.5452840   3.9613060
  44.6959130  66.3558090   4.1873250  43.8884560  65.2275980   4.7931550
  46.5428960  71.0559180  11.1905360  47.1871180  71.2618560  11.8678780
  46.9058400  70.2947580  10.7376210  40.1408130  55.8890490   4.4335580
  40.0122760  55.8808390   5.3820500  39.3170150  56.2273580   4.0826590
  47.8161040  69.0591530   9.9082810  48.4583270  68.3584690  10.0214980
  48.3410390  69.8389970   9.7279700  49.5898660  69.8586430  13.1118870
  49.9254900  70.4453120  13.7896790  48.6699000  69.7279140  13.3416660
  37.1402060  57.6481610  13.8942280  36.4260580  57.8478530  14.4994890
  37.5597100  56.8721180  14.2657080  45.4187240  69.9077760  16.2806930
  45.0984110  69.1887000  16.8252620  44.7445600  70.5832830  16.3542990
  48.6340840  60.1403920  11.6443730  49.0021660  59.3199130  11.9723300
  47.7739040  60.2005810  12.0599380  52.0002870  59.0960860   2.4531290
  51.3716030  59.2006530   1.7389520  51.5054790  59.3157640   3.2425170
  43.9686900  61.3746810   3.8689170  43.2603050  61.8433150   4.3102780
  44.2531380  60.7168820   4.5034360  45.5942830  62.7943510  11.8681700
  46.0928080  63.2689330  12.5333550  45.7365780  61.8707030  12.0751730
  48.0002330  58.0997470   5.3084960  47.8770110  58.1183600   4.3594470
  48.9486890  58.1476410   5.4283360  52.8009690  59.0111470  12.7110090
  52.2983290  59.7516870  13.0503900  53.6166350  59.3995470  12.3946880
  51.0931700  64.2544650   6.1571450  50.1521840  64.2694880   6.3319140
  51.4075770  63.4680610   6.6031750  37.4520290  69.5858280   3.3784350
  36.5260070  69.8279420   3.3689760  37.9176720  70.4132540   3.2569100
  48.4097720  68.8110650  16.6403830  47.8035880  68.8342250  15.8999580
  48.1051830  68.0793690  17.1771080  37.2930900  65.1904240  15.6364470
  37.7969920  64.6111520  16.2080700  36.5538320  65.4744470  16.1740840
  44.3468840  66.5975230  15.1699990  43.5814510  67.1660230  15.0854660
  44.5284800  66.3051440  14.2768220  51.4892190  68.3280560  15.7275010
  52.2301660  68.6656320  15.2242470  50.7264870  68.4972620  15.1744780
  39.3253980  63.3333830  16.5314540  39.3659320  63.0347700  17.4399770
  40.1799480  63.7341440  16.3722060  41.2659790  61.9125930  14.4989030
  40.7356250  61.4216880  13.8712370  41.9347860  62.3410130  13.9646960
  50.1637850  66.3795390  14.2630220  50.5778870  66.5340470  15.1120640
  49.2288850  66.5050610  14.4256000  50.6360020  63.7191550  16.2669370
  51.2180790  62.9643870  16.1789850  50.8121790  64.2498990  15.4900850
  41.7532090  58.8788300  14.5786320  41.6588960  58.2609050  13.8537190
  41.1729480  59.6054590  14.3516230  44.5193530  57.4361540  11.6113710
  44.0710830  57.4585800  10.7659260  43.8858730  57.0380560  12.2084010
  44.9253080  66.3315870  12.2326150  45.3441190  67.1748600  12.0602390
  44.0061710  66.4687910  12.0032930  47.2616980  64.0632050  13.6163990
  47.3813190  63.4673190  14.3558830  48.1210980  64.1001740  13.1965290
  49.6004880  64.6169240  12.1926500  49.0740100  65.1411860  11.5891640
  49.9436220  65.2496630  12.8236230  44.0285750  60.6053400  14.8739810
  44.6185440  60.2969250  15.5617630  43.2105990  60.1333150  15.0299710
  48.8479180  60.2219210  15.1072830  48.1594700  59.5600750  15.0422820
  49.5685200  59.7757480  15.5521290  37.0350000  71.1994680   6.9104150
  37.3653010  70.3315740   6.6782790  37.4641000  71.4053200   7.7409110
  41.6311920  69.5303690   4.5706120  41.3307460  69.4068660   5.4710030
  41.5249410  68.6712280   4.1621850  53.8560300  66.0547570   1.7767000
  54.6179210  66.6244220   1.8826690  53.8714670  65.4874770   2.5475310
  37.3564640  64.5785500   6.0074660  36.7013480  64.3097140   5.3634360
  38.1942590  64.4689980   5.5576640  54.8620270  66.9097670   6.6208930
  55.2329100  66.1264990   6.2144900  55.5022200  67.5986770   6.4426230
  51.8454030  68.2934250  12.0339250  51.0313870  68.7231410  12.2965040
  52.2528230  68.9052660  11.4208300  53.8044810  64.2850930   3.9268950
  53.4288410  63.5178860   3.4950240  53.0747930  64.6673630   4.4143880
  38.3940570  64.9638070  10.5478000  38.7613610  64.8765470  11.4274020
  37.8251390  64.2004620  10.4484860  53.1944430  63.4322450  13.5608470
  52.9630520  63.2035200  12.6606420  53.4548980  64.3522000  13.5153360
  37.9456570  61.8747160  14.4536420  37.0512620  61.8413920  14.7930130
  38.4854120  62.0733950  15.2187670  51.6332500  58.6578880  16.3388170
  52.5102680  58.6662280  16.7222170  51.6453340  57.9209720  15.7280520
  53.0795770  62.5108420   7.2276190  53.6033250  62.0171070   6.5966360
  53.6655190  62.6458780   7.9723760  53.2585490  62.5948290  10.7495740
  52.3088200  62.5611830  10.8640730  53.4398500  63.5048400  10.5145510
  52.5695740  61.7681770   3.1668600  53.0654860  61.5352640   3.9517480
  52.3711810  60.9293610   2.7506240  38.4496280  56.1495490   8.8019640
  39.0972470  55.5992870   8.3614800  38.8698120  56.4038640   9.6235450
  53.9982900  60.4042720   5.7006280  53.8882180  60.2498760   6.6388550
  54.7590490  59.8763660   5.4581690  52.3448620  56.3436850  12.1589280
  52.9820840  56.9570990  12.5248470  52.4923510  56.3797510  11.2138510
  38.2028280  56.3051160  11.5444960  37.8543100  56.7614980  12.3103140
  37.8715980  55.4108290  11.6267390  39.8092650  69.4770760  15.7098150
  39.7662280  69.1063670  16.5912610  39.9403660  70.4148330  15.8499970
  43.5098680  71.0330350  11.3107870  43.2690040  71.3004910  10.4238390
  44.4501320  71.2036080  11.3658730  45.7153100  57.4963040  15.0664380
  45.6541990  58.0884870  15.8159790  46.6553480  57.3889000  14.9214640
  48.3527660  57.1533100  14.7056670  48.9668070  57.4712390  14.0437750
  48.8977220  56.6681690  15.3252530  38.8748920  55.8327360  14.8195730
  39.4231910  55.6515410  14.0561840  38.9404230  55.0421470  15.3552040
  49.0935700  55.7165240  11.0325960  48.2195540  56.0500350  10.8298890
  48.9846450  55.2438420  11.8577830  50.0007680  57.9236110  12.4167680
  49.6721040  57.1087870  12.0369410  50.9489980  57.8805920  12.2933370
  39.2792910  69.7891390  11.7803970  38.5526970  69.1696680  11.7129920
  39.3402060  70.1832000  10.9102050  46.8410520  56.6335080   9.9718870
  46.0582310  57.1080580  10.2515630  46.5473450  55.7289910   9.8632050
  51.3931590  57.3358180   8.0167960  51.8339680  57.2803280   7.1689560
  51.1239180  58.2516190   8.0878140  53.2570160  56.9673420   6.0276780
  53.1958560  56.0234640   5.8807800  54.0362190  57.0753510   6.5730240
  38.1850930  56.9382560   2.4932590  38.9430290  57.0511440   1.9196620
  37.7228100  57.7751760   2.4476020  44.7264740  59.0521830   5.4834900
  43.9139250  58.6778720   5.1430780  45.2306380  58.2966910   5.7856090
  49.2289720  55.7164280   6.7217970  49.8319090  56.2884490   7.1966490
  48.4882710  56.2803720   6.4991870  52.3724320  56.1185840   1.9958250
  52.5674950  57.0169290   2.2625680  51.5854190  55.8872920   2.4891200
  42.7513920  57.2021750   4.0879950  42.1216660  56.5009060   4.2550080
  42.2119060  57.9625880   3.8713110  42.8769480  56.4805730  16.5232440
  42.5953750  56.9839330  15.7593260  43.2589180  55.6827480  16.1574570
  49.4784940  55.8959310  17.1012910  49.3650390  56.2153920  17.9964430
  50.2954680  56.2971820  16.8050190  48.3843090  45.1408290  62.5621610
  48.3037140  44.2262900  62.2913320  47.9707510  45.6375360  61.8561320
  46.5161130  46.9187310  64.4430880  45.7403230  46.4387750  64.7329450
  47.1674060  46.2392960  64.2687040  40.5326960  47.2307120  65.3206640
  39.7011840  46.9755830  65.7203150  41.1407940  47.3017890  66.0564560
  50.5368560  51.3247500  63.2230010  50.0750090  50.5534740  63.5517180
  51.3494110  51.3513570  63.7282460  40.5128220  51.2647210  65.5164660
  40.8156260  50.3744950  65.3374880  41.2571810  51.8217430  65.2886910
  38.9418910  42.1909010  59.1049030  38.0535610  42.5324980  59.0028910
  39.2260100  41.9909330  58.2129860  36.9051920  44.7914660  64.9888730
  37.4768030  44.0236860  64.9892370  36.9053460  45.0903420  64.0795340
  46.7631870  53.6105510  62.8434000  46.1443310  54.0663010  62.2728440
  47.6183650  53.7656970  62.4423700  45.9570120  49.5944500  64.4501040
  45.8878400  48.6534440  64.2890170  46.7189980  49.6845910  65.0223610
  38.1476790  40.1999020  66.7757660  37.9679630  39.3024770  67.0560420
  37.7456870  40.7470890  67.4504610  46.9875290  42.4014880  64.6769970
  47.3640110  41.5286760  64.5643640  46.8894800  42.7373580  63.7860410
  41.1180300  40.7740510  60.1387410  41.2247050  41.6744240  60.4456170
  40.2072660  40.7258480  59.8482060  50.7699410  39.8965320  61.6098310
  51.5909030  39.4061890  61.6523790  50.8033490  40.4862980  62.3630150
  38.7663460  42.6959520  65.3840000  39.4473570  42.9597890  66.0027400
  38.4511510  41.8560390  65.7178010  42.9588030  43.7426880  64.4712590
  43.4666250  44.2407850  65.1117610  43.4901270  42.9662080  64.2951950
  55.0598960  41.9132070  68.1741940  54.3551130  42.3013780  67.6557050
  55.3256880  42.6082360  68.7762870  41.2424130  38.3825440  68.7376010
  41.2442570  38.8997830  67.9321910  40.4128440  37.9055620  68.7145940
  47.6295220  48.4944750  60.2365910  47.0112490  48.9594200  59.6728630
  48.1418470  49.1872230  60.6535420  42.4926980  48.0220620  66.9149510
  42.1596360  48.6489540  67.5570580  42.6693660  48.5482500  66.1351180
  51.0060890  41.8365700  64.3825850  50.3016460  42.1250590  64.9628960
  51.3673050  42.6465810  64.0225410  40.9239460  40.0935400  66.7446460
  41.2656270  40.9377450  66.4500330  39.9855270  40.2419140  66.8611800
  41.7046080  49.9901420  68.7298690  42.3220080  50.6652500  68.4483140
  40.8439200  50.3989400  68.6386190  36.9978420  49.1801280  57.6105540
  36.6206400  49.6688380  56.8790440  37.2551490  49.8526560  58.2412070
  52.6223670  51.4540830  66.6453330  51.9387190  52.1239940  66.6370000
  53.1617960  51.6521480  65.8798190  54.0747810  41.2820490  64.7735060
  53.1272720  41.3159470  64.9050490  54.3997800  42.0959440  65.1584420
  44.6067350  37.5817670  63.0691050  44.9142330  37.0264560  62.3526550
  43.6768050  37.7162130  62.8864040  50.1582410  53.2984960  65.3598510
  50.1709570  52.8947250  64.4920770  49.6057630  54.0732250  65.2559940
  51.4527830  50.0201180  60.4488680  51.3424160  49.0775510  60.5738100
  51.4496080  50.3816820  61.3351440  49.5567850  48.2014800  66.6881120
  49.9736640  47.9874910  65.8534580  50.2807670  48.4587590  67.2589740
  46.9948110  45.6466500  59.8051170  46.0677390  45.5803880  60.0339640
  47.1472930  46.5846630  59.6906410  46.9817190  41.9183500  56.8018330
  46.0420860  42.0797460  56.8870790  47.3000450  42.6369180  56.2554320
  53.5029950  46.6002020  66.7797360  52.6748580  46.6695110  66.3047490
  54.0980430  47.1856330  66.3113190  51.0245400  47.2086800  60.3086420
  50.4057820  46.8706350  59.6612720  51.0069850  46.5646560  61.0165610
  50.4671960  43.3871340  67.7252230  50.0543140  44.2125050  67.9792220
  49.7347910  42.8016380  67.5328590  42.6004750  46.1731240  62.5870900
  42.1961750  45.4608490  62.0916800  42.6867870  45.8284480  63.4758940
  43.0686450  49.8598800  64.7510110  42.7714740  49.2544270  64.0717890
  44.0186270  49.8976110  64.6399470  41.3133370  42.9474450  66.3669940
  41.8647960  43.0569790  65.5923190  41.8276880  43.3212050  67.0825170
  51.1572060  53.4330670  68.4133210  50.6802620  54.2402860  68.2205820
  50.4733850  52.7809000  68.5659420  49.2010100  46.4473610  57.3159170
  49.6403380  45.6096040  57.1696990  49.9138520  47.0803010  57.4023310
  47.3105480  51.3869680  61.2840410  47.7501390  52.1294010  60.8695800
  47.2492370  51.6296250  62.2079370  52.7827240  37.7016420  55.6300210
  52.4699900  37.7943250  56.5299280  53.5439710  38.2797450  55.5797640
  39.3009380  45.0676220  60.0877550  39.1806980  45.7938310  59.4758820
  38.9910270  44.2979130  59.6105460  36.9394750  48.2391360  65.8946190
  37.0175170  48.3740130  64.9501910  37.5536430  47.5307250  66.0874310
  38.1842380  49.9391550  62.3052370  37.7770460  50.0806140  61.4505970
  39.0755390  49.6551710  62.1023580  48.0021260  54.0883460  69.2119420
  48.5165930  53.9991470  70.0141850  47.1590340  54.4343160  69.5047330
  49.9775660  54.3738800  58.6403420  49.8176800  54.0841740  59.5385250
  49.8122370  53.5978930  58.1048650  42.4564040  54.1537330  60.4175040
  42.2806520  53.2372870  60.2042840  41.6019780  54.5124620  60.6572840
  49.6801790  51.8826360  57.2001420  48.9866950  51.8803650  56.5403700
  50.4224650  51.4585680  56.7695590  49.2451720  53.5089070  61.2749910
  49.7008670  52.7278450  61.5888530  49.5844240  54.2195890  61.8191090
  36.9954270  49.2805530  68.4340650  37.1585310  48.8110890  67.6160020
  37.4606720  48.7729090  69.0989490  41.7673040  38.4111290  63.4701220
  41.3241190  39.1920830  63.1385740  42.3258030  38.7341180  64.1772160
  46.0542850  41.2779810  69.0736540  45.5922220  41.4862830  69.8856480
  45.6520960  40.4639160  68.7707210  44.8831860  38.0321990  58.3507050
  44.2586040  38.0281860  59.0760360  44.7961980  37.1652950  57.9543020
  43.8048940  38.9558620  65.3290820  44.1021270  39.8621450  65.2482840
  44.3534500  38.4677400  64.7150390  41.5587260  43.5344860  61.1982470
  41.3328180  43.3182030  62.1029090  40.7779790  43.9673320  60.8528440
  48.7885020  43.5408230  59.7973120  48.1893910  44.2644030  59.6136740
  49.3364630  43.4785010  59.0149570  47.3949890  42.1771770  61.8276400
  47.7879460  42.4943970  61.0145090  47.7566740  41.2983650  61.9420920
  39.1297010  40.8444110  70.0176520  38.7360400  41.6919320  70.2249300
  38.4415410  40.2070480  70.2085160  36.4314060  38.7672570  64.0506600
  36.1427110  39.3375430  64.7631580  37.1759820  38.2877020  64.4137830
  36.6184290  42.7092690  55.2609320  36.5358960  43.6523450  55.4024310
  36.2667350  42.5667600  54.3821670  47.9805030  44.7677520  65.9227180
  47.2486150  45.2764330  66.2717280  47.5829370  43.9507500  65.6215960
  44.4182420  41.4431720  64.3279670  44.4218480  41.0021670  63.4784210
  45.3133540  41.7649050  64.4351490  40.2684800  41.3258210  63.2873880
  39.9284850  41.8033440  64.0440930  39.5062120  40.8723330  62.9274980
  44.4802570  42.4443800  57.3186430  44.6015390  42.4030280  58.2672250
  44.0951080  43.3067950  57.1633160  48.4430940  40.2211200  65.3350120
  48.4603680  40.6719850  66.1791970  48.1946520  39.3216840  65.5483560
  43.4924070  44.7544940  56.7169730  42.9240970  44.3063190  56.0905640
  44.2013070  45.1137720  56.1834880  44.7190390  45.5033500  66.0745080
  45.0860520  45.0292070  66.8206420  44.5295450  46.3775070  66.4153420
  37.5830880  40.2477190  62.2038550  37.2977800  39.8832860  63.0417170
  37.5209740  39.5157650  61.5901690  42.5089760  44.5442140  68.3929290
  42.2046830  45.4234120  68.6179650  43.4636220  44.6041930  68.4286730
  41.0371550  48.7503130  58.9896140  40.2633810  48.2100750  58.8294860
  41.7666180  48.2309740  58.6513900  51.7959530  47.7468490  64.7822530
  52.5158650  48.2423780  64.3918640  51.5941350  47.0686380  64.1376400
  47.2569470  39.1406450  58.9251920  46.4434080  38.6419620  58.8497230
  47.0631420  39.9804700  58.5088270  49.9717860  43.5126100  57.2214080
  50.8597480  43.8243330  57.0465420  49.9422950  42.6398350  56.8294660
  41.0808950  48.4183510  62.6274950  41.5987620  47.6151770  62.5731840
  40.6292970  48.3562650  63.4691780  45.9678450  49.6849790  57.9002250
  46.3094150  50.4292020  57.4045570  45.1391160  49.9980910  58.2627080
  38.5653490  45.3844880  69.5400650  38.2068430  46.0498730  70.1273990
  38.2708050  44.5528430  69.9113270  52.2432130  44.8237940  56.6893940
  52.1595850  45.2552160  55.8390380  52.9626320  45.2836290  57.1220760
  53.3206270  47.2805460  69.7663910  52.5954460  47.8734240  69.5693300
  53.8481730  47.2729000  68.9677280  53.2719380  51.6780200  59.4176070
  52.6295540  51.0235820  59.6919790  52.8850040  52.0835290  58.6416740
  48.8505860  49.0065630  63.2647760  49.2029680  48.4093760  62.6049130
  47.9668190  48.6809860  63.4356010  44.9369140  49.7663320  60.6718170
  45.6240270  50.3132530  61.0525760  44.1501560  50.3104050  60.7067780
  37.0761540  45.3836140  56.1635250  37.9456390  45.6660940  56.4471170
  36.5851860  46.1972010  56.0484060  44.2396350  46.7709350  60.2843530
  44.6959130  47.5814600  60.5103720  43.8884560  46.4532490  61.1162020
  46.5428960  52.2815690  67.5135830  47.1871180  52.4875070  68.1909250
  46.9058400  51.5204090  67.0606680  40.1408130  37.1147000  60.7566050
  40.0122760  37.1064900  61.7050970  39.3170150  37.4530090  60.4057060
  47.8161040  50.2848040  66.2313280  48.4583270  49.5841200  66.3445450
  48.3410390  51.0646480  66.0510170  51.6616760  50.5696660  55.9552420
  51.4354340  49.8527100  56.5477060  51.2712960  50.3209100  55.1174170
  49.5898660  51.0842940  69.4349340  49.9254900  51.6709630  70.1127260
  48.6699000  50.9535650  69.6647130  37.4432790  54.5963520  56.7296880
  37.8030430  55.1952860  56.0754150  37.3025130  55.1423410  57.5031910
  51.2433010  48.4868600  57.6166580  50.9554710  48.9481290  58.4044460
  52.0385180  48.0266370  57.8850800  43.4601410  51.9794720  57.5470550
  43.4511510  52.7124410  56.9315060  42.5399770  51.7326300  57.6397510
  39.0608050  47.2009610  58.2917310  38.4536000  47.9408510  58.3012610
  39.5357400  47.2908970  57.4655510  48.6340840  41.3660430  67.9674200
  49.0021660  40.5455640  68.2953770  47.7739040  41.4262320  68.3829850
  52.0002870  40.3217370  58.7761760  51.3716030  40.4263040  58.0619990
  51.5054790  40.5414150  59.5655640  46.4461010  52.0422960  56.2095740
  46.5472990  51.8386950  55.2797720  45.5462750  51.7881240  56.4143520
  43.9686900  42.6003320  60.1919640  43.2603050  43.0689660  60.6333250
  44.2531380  41.9425330  60.8264830  45.5942830  44.0200020  68.1912170
  46.0928080  44.4945840  68.8564020  45.7365780  43.0963540  68.3982200
  48.0002330  39.3253980  61.6315430  47.8770110  39.3440110  60.6824940
  48.9486890  39.3732920  61.7513830  45.0879120  54.5609280  60.9043410
  45.3420620  54.5230670  59.9822780  44.1391600  54.4342610  60.8971660
  42.1721920  40.9088400  57.5670350  43.0212450  41.3458550  57.5010540
  41.8053190  41.2208660  58.3942410  52.8009690  40.2367980  69.0340560
  52.2983290  40.9773380  69.3734370  53.6166350  40.6251980  68.7177350
  51.0931700  45.4801160  62.4801920  50.1521840  45.4951390  62.6549610
  51.4075770  44.6937120  62.9262220  41.0713340  47.1620760  56.0405880
  41.8376610  47.0502120  56.6031310  41.1488030  46.4658730  55.3882650
  39.7660100  44.5945830  56.7238770  39.8463690  43.6473340  56.8356170
  40.6579850  44.9252710  56.8299430  53.0957280  52.6510010  64.1556180
  53.2204700  53.4741180  64.6279990  53.9622840  52.4400740  63.8080330
  40.5674810  54.7441220  63.8273310  41.3037290  54.1956680  64.0981880
  40.9515730  55.6097230  63.6879300  37.4520290  50.8114790  59.7014820
  36.5260070  51.0535930  59.6920230  37.9176720  51.6389050  59.5799570
  43.6777120  53.9171530  55.6498880  44.4705730  54.2060360  55.1980670
  43.1581470  53.4863700  54.9711360  52.7307290  53.1441660  57.0735620
  52.4448800  52.7306800  56.2589800  52.5326840  54.0729370  56.9536140
  44.1954520  49.1374940  55.5141230  44.0905160  48.5227290  56.2402610
  44.0278740  48.6140830  54.7304240  47.4357250  48.1994970  56.1183220
  46.8867350  48.6464270  56.7625960  48.0576510  47.6944220  56.6420890
  43.1032370  47.1585890  58.0148520  43.5248790  46.9925760  58.8579910
  43.2283210  46.3486120  57.5203660  45.6160010  46.1823500  55.2625620
  46.1365670  45.4672520  54.8966770  46.2628410  46.8209370  55.5626130
  44.5193530  38.6618050  67.9344180  44.0710830  38.6842310  67.0889730
  43.8858730  38.2637070  68.5314480  44.9253080  47.5572380  68.5556620
  45.3441190  48.4005110  68.3832860  44.0061710  47.6944420  68.3263400
  49.6004880  45.8425750  68.5156970  49.0740100  46.3668370  67.9122110
  49.9436220  46.4753140  69.1466700  41.9991270  43.2319120  54.9606680
  41.7980330  42.3686480  55.3220020  41.8283320  43.1452480  54.0228280
  42.7760500  53.8625390  69.6714350  42.2381590  54.5871450  69.3523050
  43.0294460  53.3855730  68.8811690  49.4779580  38.0427350  57.4893560
  49.7581870  37.1995250  57.8452980  48.7045310  38.2750460  58.0032310
  40.7974070  40.3319740  54.9484560  41.0999970  40.3387170  54.0403710
  41.5368660  39.9817600  55.4452220  45.6322710  55.0976600  69.9301000
  45.5581410  56.0011740  70.2373370  44.7301550  54.7788500  69.9023070
  44.0159000  39.2754360  55.9340760  43.6681000  38.5978350  55.3543210
  44.2171770  38.8143870  56.7484150  46.1808040  54.2635110  57.5527360
  47.0758830  54.6020080  57.5746120  46.2125670  53.5414520  56.9251640
  39.8204200  49.6362160  55.7814360  40.2579070  50.1791830  56.4371940
  40.3051930  48.8109110  55.7910700  37.0350000  52.4251190  63.2334620
  37.3653010  51.5572250  63.0013260  37.4641000  52.6309710  64.0639580
  41.6311920  50.7560200  60.8936590  41.3307460  50.6325170  61.7940500
  41.5249410  49.8968790  60.4852320  37.5240210  53.2921780  65.9716250
  37.0871200  53.4722580  66.8040400  38.0917890  54.0496400  65.8297970
  54.4003840  50.5356600  55.5963270  53.5696800  50.6033250  56.0670500
  54.5775670  51.4260720  55.2930130  53.8560300  47.2804080  58.0997470
  54.6179210  47.8500730  58.2057160  53.8714670  46.7131280  58.8705780
  37.3564640  45.8042010  62.3305130  36.7013480  45.5353650  61.6864830
  38.1942590  45.6946490  61.8807110  54.8620270  48.1354180  62.9439400
  55.2329100  47.3521500  62.5375370  55.5022200  48.8243280  62.7656700
  51.8454030  49.5190760  68.3569720  51.0313870  49.9487920  68.6195510
  52.2528230  50.1309170  67.7438770  53.9079470  47.5738450  55.2569990
  54.1828310  48.4817330  55.1289210  53.7190210  47.5100980  56.1931980
  50.3055080  40.5983300  56.5523620  50.7239960  40.4114280  55.7120280
  49.9991140  39.7462350  56.8626550  53.8044810  45.5107440  60.2499420
  53.4288410  44.7435370  59.8180710  53.0747930  45.8930140  60.7374350
  38.3940570  46.1894580  66.8708470  38.7613610  46.1021980  67.7504490
  37.8251390  45.4261130  66.7715330  53.1944430  44.6578960  69.8838940
  52.9630520  44.4291710  68.9836890  53.4548980  45.5778510  69.8383830
  36.5702720  43.0140940  58.2730460  35.6666800  43.2771140  58.0982120
  37.0543340  43.2852110  57.4930420  53.0795770  43.7364930  63.5506660
  53.6033250  43.2427580  62.9196830  53.6655190  43.8715290  64.2954230
  53.2585490  43.8204800  67.0726210  52.3088200  43.7868340  67.1871200
  53.4398500  44.7304910  66.8375980  39.1129930  42.0706480  56.1824840
  39.8221630  41.6489700  55.6972120  38.3969870  42.1381710  55.5508190
  38.7604090  38.1245810  55.2227490  39.4832220  38.6654750  55.5408710
  39.0328610  37.8509230  54.3469030  52.5695740  42.9938280  59.4899070
  53.0654860  42.7609150  60.2747950  52.3711810  42.1550120  59.0736710
  38.4496280  37.3752000  65.1250110  39.0972470  36.8249380  64.6845270
  38.8698120  37.6295150  65.9465920  53.9982900  41.6299230  62.0236750
  53.8882180  41.4755270  62.9619020  54.7590490  41.1020170  61.7812160
  52.3448620  37.5693360  68.4819750  52.9820840  38.1827500  68.8478940
  52.4923510  37.6054020  67.5368980  54.8873170  39.4607150  55.2642890
  55.8122480  39.3288330  55.0561180  54.8648960  39.5399970  56.2179340
  54.9611660  40.2317810  57.8899600  54.1663160  40.1662930  58.4192510
  55.1654940  41.1668450  57.8784950  51.9030080  54.2709360  61.8837990
  52.4989150  53.9493930  61.2072410  52.1608230  53.7981180  62.6751260
  38.2028280  37.5307670  67.8675430  37.8543100  37.9871490  68.6333610
  37.8715980  36.6364800  67.9497860  43.5098680  52.2586860  67.6338340
  43.2690040  52.5261420  66.7468860  44.4501320  52.4292590  67.6889200
  54.7702840  54.2781240  68.4348980  54.2761120  54.6750110  67.7176110
  54.1616130  53.6530450  68.8286260  39.6480680  53.6489520  69.1526400
  39.0541000  53.5174220  69.8916440  39.6404520  52.8127660  68.6868500
  49.0935700  36.9421750  67.3556430  48.2195540  37.2756860  67.1529360
  48.9846450  36.4694930  68.1808300  50.0007680  39.1492620  68.7398150
  49.6721040  38.3344380  68.3599880  50.9489980  39.1062430  68.6163840
  52.4542290  54.9204660  65.7135720  51.9945260  55.6720470  65.3393740
  51.8254750  54.2011130  65.6550520  39.2792910  51.0147900  68.1034440
  38.5526970  50.3953190  68.0360390  39.3402060  51.4088510  67.2332520
  42.8838010  53.2292900  64.8883850  43.4003030  52.6180260  64.3632110
  43.5335390  53.7321680  65.3794860  45.6233510  54.1201390  65.7152830
  45.9111320  53.8655690  64.8385840  46.1356730  53.5678750  66.3058400
  46.8410520  37.8591590  66.2949340  46.0582310  38.3337090  66.5746100
  46.5473450  36.9546420  66.1862520  51.3931590  38.5614690  64.3398430
  51.8339680  38.5059790  63.4920030  51.1239180  39.4772700  64.4108610
  53.2570160  38.1929930  62.3507250  53.1958560  37.2491150  62.2038270
  54.0362190  38.3010020  62.8960710  37.5622910  54.3322290  61.3131200
  37.3944950  53.6992970  62.0113090  36.6957420  54.5381690  60.9625390
  38.1850930  38.1639070  58.8163060  38.9430290  38.2767950  58.2427090
  37.7228100  39.0008270  58.7706490  44.7264740  40.2778340  61.8065370
  43.9139250  39.9035230  61.4661250  45.2306380  39.5223420  62.1086560
  49.2289720  36.9420790  63.0448440  49.8319090  37.5141000  63.5196960
  48.4882710  37.5060230  62.8222340  52.3724320  37.3442350  58.3188720
  52.5674950  38.2425800  58.5856150  51.5854190  37.1129430  58.8121670
  39.1685610  53.0255520  58.7581340  38.6433230  53.4063550  58.0543300
  39.0930190  53.6506290  59.4791050  40.5576080  38.6903120  57.3565030
  41.0868840  37.9032920  57.2272980  41.1904400  39.3694310  57.5900560
  42.7513920  38.4278260  60.4110420  42.1216660  37.7265570  60.5780550
  42.2119060  39.1882390  60.1943580  53.9250930  54.5843060  60.0795280
  54.1003120  53.8980800  59.4356200  53.2272500  55.1090110  59.6871950
  41.7678580  54.9737900  57.6330590  42.4997400  54.6897180  57.0854480
  42.0272250  54.7351180  58.5229970  40.9293370  51.0902630  57.6376920
  40.3002250  51.5587730  58.1862750  41.0441200  50.2451850  58.0723110
  48.3843090  45.1408290  43.7878120  48.3037140  44.2262900  43.5169830
  47.9707510  45.6375360  43.0817830  46.5161130  46.9187310  45.6687390
  45.7403230  46.4387750  45.9585960  47.1674060  46.2392960  45.4943550
  40.5326960  47.2307120  46.5463150  39.7011840  46.9755830  46.9459660
  41.1407940  47.3017890  47.2821070  50.5368560  51.3247500  44.4486520
  50.0750090  50.5534740  44.7773690  51.3494110  51.3513570  44.9538970
  40.5128220  51.2647210  46.7421170  40.8156260  50.3744950  46.5631390
  41.2571810  51.8217430  46.5143420  38.9418910  42.1909010  40.3305540
  38.0535610  42.5324980  40.2285420  39.2260100  41.9909330  39.4386370
  36.9051920  44.7914660  46.2145240  37.4768030  44.0236860  46.2148880
  36.9053460  45.0903420  45.3051850  46.7631870  53.6105510  44.0690510
  46.1443310  54.0663010  43.4984950  47.6183650  53.7656970  43.6680210
  45.9570120  49.5944500  45.6757550  45.8878400  48.6534440  45.5146680
  46.7189980  49.6845910  46.2480120  38.1476790  40.1999020  48.0014170
  37.9679630  39.3024770  48.2816930  37.7456870  40.7470890  48.6761120
  46.9875290  42.4014880  45.9026480  47.3640110  41.5286760  45.7900150
  46.8894800  42.7373580  45.0116920  41.1180300  40.7740510  41.3643920
  41.2247050  41.6744240  41.6712680  40.2072660  40.7258480  41.0738570
  50.7699410  39.8965320  42.8354820  51.5909030  39.4061890  42.8780300
  50.8033490  40.4862980  43.5886660  38.7663460  42.6959520  46.6096510
  39.4473570  42.9597890  47.2283910  38.4511510  41.8560390  46.9434520
  42.9588030  43.7426880  45.6969100  43.4666250  44.2407850  46.3374120
  43.4901270  42.9662080  45.5208460  55.0598960  41.9132070  49.3998450
  54.3551130  42.3013780  48.8813560  55.3256880  42.6082360  50.0019380
  41.2424130  38.3825440  49.9632520  41.2442570  38.8997830  49.1578420
  40.4128440  37.9055620  49.9402450  47.6295220  48.4944750  41.4622420
  47.0112490  48.9594200  40.8985140  48.1418470  49.1872230  41.8791930
  42.4926980  48.0220620  48.1406020  42.1596360  48.6489540  48.7827090
  42.6693660  48.5482500  47.3607690  51.0060890  41.8365700  45.6082360
  50.3016460  42.1250590  46.1885470  51.3673050  42.6465810  45.2481920
  40.9239460  40.0935400  47.9702970  41.2656270  40.9377450  47.6756840
  39.9855270  40.2419140  48.0868310  41.7046080  49.9901420  49.9555200
  42.3220080  50.6652500  49.6739650  40.8439200  50.3989400  49.8642700
  36.9978420  49.1801280  38.8362050  36.6206400  49.6688380  38.1046950
  37.2551490  49.8526560  39.4668580  52.6223670  51.4540830  47.8709840
  51.9387190  52.1239940  47.8626510  53.1617960  51.6521480  47.1054700
  54.0747810  41.2820490  45.9991570  53.1272720  41.3159470  46.1307000
  54.3997800  42.0959440  46.3840930  44.6067350  37.5817670  44.2947560
  44.9142330  37.0264560  43.5783060  43.6768050  37.7162130  44.1120550
  50.1582410  53.2984960  46.5855020  50.1709570  52.8947250  45.7177280
  49.6057630  54.0732250  46.4816450  51.4527830  50.0201180  41.6745190
  51.3424160  49.0775510  41.7994610  51.4496080  50.3816820  42.5607950
  49.5567850  48.2014800  47.9137630  49.9736640  47.9874910  47.0791090
  50.2807670  48.4587590  48.4846250  46.9948110  45.6466500  41.0307680
  46.0677390  45.5803880  41.2596150  47.1472930  46.5846630  40.9162920
  46.9817190  41.9183500  38.0274840  46.0420860  42.0797460  38.1127300
  47.3000450  42.6369180  37.4810830  53.5029950  46.6002020  48.0053870
  52.6748580  46.6695110  47.5304000  54.0980430  47.1856330  47.5369700
  51.0245400  47.2086800  41.5342930  50.4057820  46.8706350  40.8869230
  51.0069850  46.5646560  42.2422120  50.4671960  43.3871340  48.9508740
  50.0543140  44.2125050  49.2048730  49.7347910  42.8016380  48.7585100
  42.6004750  46.1731240  43.8127410  42.1961750  45.4608490  43.3173310
  42.6867870  45.8284480  44.7015450  43.0686450  49.8598800  45.9766620
  42.7714740  49.2544270  45.2974400  44.0186270  49.8976110  45.8655980
  41.3133370  42.9474450  47.5926450  41.8647960  43.0569790  46.8179700
  41.8276880  43.3212050  48.3081680  51.1572060  53.4330670  49.6389720
  50.6802620  54.2402860  49.4462330  50.4733850  52.7809000  49.7915930
  42.1604880  49.5980490  52.6274420  41.2633410  49.8220460  52.8747820
  42.1857750  49.7215430  51.6785820  49.2010100  46.4473610  38.5415680
  49.6403380  45.6096040  38.3953500  49.9138520  47.0803010  38.6279820
  40.9876100  46.4693810  51.2031790  40.8483870  47.3416610  51.5719190
  40.1057460  46.1266620  51.0579730  47.3105480  51.3869680  42.5096920
  47.7501390  52.1294010  42.0952310  47.2492370  51.6296250  43.4335880
  42.7856450  52.4115510  53.4116940  42.7571880  52.8158460  52.5445370
  42.6221420  51.4825870  53.2488540  52.7827240  37.7016420  36.8556720
  52.4699900  37.7943250  37.7555790  53.5439710  38.2797450  36.8054150
  39.3009380  45.0676220  41.3134060  39.1806980  45.7938310  40.7015330
  38.9910270  44.2979130  40.8361970  54.7371270  53.1942610  54.7081110
  55.2130990  53.6725500  55.3870190  55.3578430  53.1260100  53.9826610
  36.9394750  48.2391360  47.1202700  37.0175170  48.3740130  46.1758420
  37.5536430  47.5307250  47.3130820  38.1842380  49.9391550  43.5308880
  37.7770460  50.0806140  42.6762480  39.0755390  49.6551710  43.3280090
  54.1404520  50.3855460  51.8681120  54.2667580  50.1467340  50.9498300
  54.1825900  49.5540000  52.3403200  48.0021260  54.0883460  50.4375930
  48.5165930  53.9991470  51.2398360  47.1590340  54.4343160  50.7303840
  49.9775660  54.3738800  39.8659930  49.8176800  54.0841740  40.7641760
  49.8122370  53.5978930  39.3305160  42.4564040  54.1537330  41.6431550
  42.2806520  53.2372870  41.4299350  41.6019780  54.5124620  41.8829350
  49.6801790  51.8826360  38.4257930  48.9866950  51.8803650  37.7660210
  50.4224650  51.4585680  37.9952100  49.2451720  53.5089070  42.5006420
  49.7008670  52.7278450  42.8145040  49.5844240  54.2195890  43.0447600
  53.9928530  42.4387920  52.8330860  53.3772800  42.9467590  52.3046320
  53.6724950  41.5386250  52.7756800  36.9954270  49.2805530  49.6597160
  37.1585310  48.8110890  48.8416530  37.4606720  48.7729090  50.3246000
  41.7673040  38.4111290  44.6957730  41.3241190  39.1920830  44.3642250
  42.3258030  38.7341180  45.4028670  46.0542850  41.2779810  50.2993050
  45.5922220  41.4862830  51.1112990  45.6520960  40.4639160  49.9963720
  51.0547360  42.4988760  51.4289710  50.2040950  42.1994510  51.7498780
  50.8949150  42.7430770  50.5173530  48.1497070  43.9990510  53.5288500
  48.4750480  43.1654260  53.1890730  48.9377400  44.5219030  53.6766830
  44.8831860  38.0321990  39.5763560  44.2586040  38.0281860  40.3016870
  44.7961980  37.1652950  39.1799530  43.8048940  38.9558620  46.5547330
  44.1021270  39.8621450  46.4739350  44.3534500  38.4677400  45.9406900
  41.5587260  43.5344860  42.4238980  41.3328180  43.3182030  43.3285600
  40.7779790  43.9673320  42.0784950  48.7885020  43.5408230  41.0229630
  48.1893910  44.2644030  40.8393250  49.3364630  43.4785010  40.2406080
  43.9986470  44.4330440  53.0899250  43.9030070  43.4925170  52.9399650
  44.8418450  44.6545510  52.6947320  47.3949890  42.1771770  43.0532910
  47.7879460  42.4943970  42.2401600  47.7566740  41.2983650  43.1677430
  39.1297010  40.8444110  51.2433030  38.7360400  41.6919320  51.4505810
  38.4415410  40.2070480  51.4341670  45.7042060  40.9279080  54.3129770
  45.0140380  40.7351280  54.9475860  46.4474360  41.2113720  54.8454070
  36.4314060  38.7672570  45.2763110  36.1427110  39.3375430  45.9888090
  37.1759820  38.2877020  45.6394340  36.6184290  42.7092690  36.4865830
  36.5358960  43.6523450  36.6280820  36.2667350  42.5667600  35.6078180
  47.9805030  44.7677520  47.1483690  47.2486150  45.2764330  47.4973790
  47.5829370  43.9507500  46.8472470  44.4182420  41.4431720  45.5536180
  44.4218480  41.0021670  44.7040720  45.3133540  41.7649050  45.6608000
  40.2684800  41.3258210  44.5130390  39.9284850  41.8033440  45.2697440
  39.5062120  40.8723330  44.1531490  44.4802570  42.4443800  38.5442940
  44.6015390  42.4030280  39.4928760  44.0951080  43.3067950  38.3889670
  48.4430940  40.2211200  46.5606630  48.4603680  40.6719850  47.4048480
  48.1946520  39.3216840  46.7740070  43.4924070  44.7544940  37.9426240
  42.9240970  44.3063190  37.3162150  44.2013070  45.1137720  37.4091390
  51.8701690  37.6343380  52.3993010  52.1947460  36.9033040  52.9250990
  51.9058200  37.3157020  51.4974000  38.5693250  48.6556960  51.8192970
  38.1848040  48.0150630  52.4175930  38.8805440  49.3593080  52.3887700
  44.7190390  45.5033500  47.3001590  45.0860520  45.0292070  48.0462930
  44.5295450  46.3775070  47.6409930  37.5830880  40.2477190  43.4295060
  37.2977800  39.8832860  44.2673680  37.5209740  39.5157650  42.8158200
  42.5089760  44.5442140  49.6185800  42.2046830  45.4234120  49.8436160
  43.4636220  44.6041930  49.6543240  41.0371550  48.7503130  40.2152650
  40.2633810  48.2100750  40.0551370  41.7666180  48.2309740  39.8770410
  51.7959530  47.7468490  46.0079040  52.5158650  48.2423780  45.6175150
  51.5941350  47.0686380  45.3632910  47.2569470  39.1406450  40.1508430
  46.4434080  38.6419620  40.0753740  47.0631420  39.9804700  39.7344780
  47.1778330  47.8177550  51.8948040  47.1115640  46.8973220  51.6405630
  46.5483470  47.9152990  52.6092680  49.9717860  43.5126100  38.4470590
  50.8597480  43.8243330  38.2721930  49.9422950  42.6398350  38.0551170
  41.0808950  48.4183510  43.8531460  41.5987620  47.6151770  43.7988350
  40.6292970  48.3562650  44.6948290  45.9678450  49.6849790  39.1258760
  46.3094150  50.4292020  38.6302080  45.1391160  49.9980910  39.4883590
  38.5653490  45.3844880  50.7657160  38.2068430  46.0498730  51.3530500
  38.2708050  44.5528430  51.1369780  41.7666610  45.8429120  53.6496710
  41.4666750  45.9886300  52.7524530  42.5377850  45.2834410  53.5570100
  47.1095060  50.6398120  51.6451840  47.1239600  49.7079080  51.4270750
  46.4020160  50.7257880  52.2841610  52.2432130  44.8237940  37.9150450
  52.1595850  45.2552160  37.0646890  52.9626320  45.2836290  38.3477270
  53.3206270  47.2805460  50.9920420  52.5954460  47.8734240  50.7949810
  53.8481730  47.2729000  50.1933790  53.2719380  51.6780200  40.6432580
  52.6295540  51.0235820  40.9176300  52.8850040  52.0835290  39.8673250
  48.8505860  49.0065630  44.4904270  49.2029680  48.4093760  43.8305640
  47.9668190  48.6809860  44.6612520  44.9369140  49.7663320  41.8974680
  45.6240270  50.3132530  42.2782270  44.1501560  50.3104050  41.9324290
  37.0761540  45.3836140  37.3891760  37.9456390  45.6660940  37.6727680
  36.5851860  46.1972010  37.2740570  44.2396350  46.7709350  41.5100040
  44.6959130  47.5814600  41.7360230  43.8884560  46.4532490  42.3418530
  46.5428960  52.2815690  48.7392340  47.1871180  52.4875070  49.4165760
  46.9058400  51.5204090  48.2863190  40.1408130  37.1147000  41.9822560
  40.0122760  37.1064900  42.9307480  39.3170150  37.4530090  41.6313570
  47.8161040  50.2848040  47.4569790  48.4583270  49.5841200  47.5701960
  48.3410390  51.0646480  47.2766680  51.6616760  50.5696660  37.1808930
  51.4354340  49.8527100  37.7733570  51.2712960  50.3209100  36.3430680
  49.5898660  51.0842940  50.6605850  49.9254900  51.6709630  51.3383770
  48.6699000  50.9535650  50.8903640  37.4432790  54.5963520  37.9553390
  37.8030430  55.1952860  37.3010660  37.3025130  55.1423410  38.7288420
  37.1402060  38.8738120  51.4429260  36.4260580  39.0735040  52.0481870
  37.5597100  38.0977690  51.8144060  51.2433010  48.4868600  38.8423090
  50.9554710  48.9481290  39.6300970  52.0385180  48.0266370  39.1107310
  37.4274650  52.8618380  52.4295790  37.5365770  51.9213120  52.2891180
  36.7755210  53.1273130  51.7809520  45.4187240  51.1334270  53.8293910
  45.0984110  50.4143510  54.3739600  44.7445600  51.8089340  53.9029970
  43.4601410  51.9794720  38.7727060  43.4511510  52.7124410  38.1571570
  42.5399770  51.7326300  38.8654020  39.0608050  47.2009610  39.5173820
  38.4536000  47.9408510  39.5269120  39.5357400  47.2908970  38.6912020
  48.6340840  41.3660430  49.1930710  49.0021660  40.5455640  49.5210280
  47.7739040  41.4262320  49.6086360  52.0002870  40.3217370  40.0018270
  51.3716030  40.4263040  39.2876500  51.5054790  40.5414150  40.7912150
  46.4461010  52.0422960  37.4352250  46.5472990  51.8386950  36.5054230
  45.5462750  51.7881240  37.6400030  43.9686900  42.6003320  41.4176150
  43.2603050  43.0689660  41.8589760  44.2531380  41.9425330  42.0521340
  45.5942830  44.0200020  49.4168680  46.0928080  44.4945840  50.0820530
  45.7365780  43.0963540  49.6238710  48.0002330  39.3253980  42.8571940
  47.8770110  39.3440110  41.9081450  48.9486890  39.3732920  42.9770340
  45.0879120  54.5609280  42.1299920  45.3420620  54.5230670  41.2079290
  44.1391600  54.4342610  42.1228170  42.1721920  40.9088400  38.7926860
  43.0212450  41.3458550  38.7267050  41.8053190  41.2208660  39.6198920
  52.8009690  40.2367980  50.2597070  52.2983290  40.9773380  50.5990880
  53.6166350  40.6251980  49.9433860  51.0931700  45.4801160  43.7058430
  50.1521840  45.4951390  43.8806120  51.4075770  44.6937120  44.1518730
  41.0713340  47.1620760  37.2662390  41.8376610  47.0502120  37.8287820
  41.1488030  46.4658730  36.6139160  39.7660100  44.5945830  37.9495280
  39.8463690  43.6473340  38.0612680  40.6579850  44.9252710  38.0555940
  53.0957280  52.6510010  45.3812690  53.2204700  53.4741180  45.8536500
  53.9622840  52.4400740  45.0336840  40.5674810  54.7441220  45.0529820
  41.3037290  54.1956680  45.3238390  40.9515730  55.6097230  44.9135810
  37.4520290  50.8114790  40.9271330  36.5260070  51.0535930  40.9176740
  37.9176720  51.6389050  40.8056080  39.5733090  53.9287290  54.2415400
  40.3745820  54.2499340  54.6550800  39.0584910  53.5682870  54.9635310
  43.6777120  53.9171530  36.8755390  44.4705730  54.2060360  36.4237180
  43.1581470  53.4863700  36.1967870  48.4097720  50.0367160  54.1890810
  47.8035880  50.0598760  53.4486560  48.1051830  49.3050200  54.7258060
  49.8398090  53.7647450  52.8000220  50.7919840  53.6805470  52.7500460
  49.6926310  54.4289160  53.4734010  52.7307290  53.1441660  38.2992130
  52.4448800  52.7306800  37.4846310  52.5326840  54.0729370  38.1792650
  37.2930900  46.4160750  53.1851450  37.7969920  45.8368030  53.7567680
  36.5538320  46.7000980  53.7227820  44.1954520  49.1374940  36.7397740
  44.0905160  48.5227290  37.4659120  44.0278740  48.6140830  35.9560750
  44.3468840  47.8231740  52.7186970  43.5814510  48.3916740  52.6341640
  44.5284800  47.5307950  51.8255200  47.4357250  48.1994970  37.3439730
  46.8867350  48.6464270  37.9882470  48.0576510  47.6944220  37.8677400
  51.4892190  49.5537070  53.2761990  52.2301660  49.8912830  52.7729450
  50.7264870  49.7229130  52.7231760  39.3253980  44.5590340  54.0801520
  39.3659320  44.2604210  54.9886750  40.1799480  44.9597950  53.9209040
  43.1032370  47.1585890  39.2405030  43.5248790  46.9925760  40.0836420
  43.2283210  46.3486120  38.7460170  41.2659790  43.1382440  52.0476010
  40.7356250  42.6473390  51.4199350  41.9347860  43.5666640  51.5133940
  45.6160010  46.1823500  36.4882130  46.1365670  45.4672520  36.1223280
  46.2628410  46.8209370  36.7882640  50.1637850  47.6051900  51.8117200
  50.5778870  47.7596980  52.6607620  49.2288850  47.7307120  51.9742980
  50.6360020  44.9448060  53.8156350  51.2180790  44.1900380  53.7276830
  50.8121790  45.4755500  53.0387830  41.7532090  40.1044810  52.1273300
  41.6588960  39.4865560  51.4024170  41.1729480  40.8311100  51.9003210
  44.5193530  38.6618050  49.1600690  44.0710830  38.6842310  48.3146240
  43.8858730  38.2637070  49.7570990  44.9253080  47.5572380  49.7813130
  45.3441190  48.4005110  49.6089370  44.0061710  47.6944420  49.5519910
  47.2616980  45.2888560  51.1650970  47.3813190  44.6929700  51.9045810
  48.1210980  45.3258250  50.7452270  49.6004880  45.8425750  49.7413480
  49.0740100  46.3668370  49.1378620  49.9436220  46.4753140  50.3723210
  41.9991270  43.2319120  36.1863190  41.7980330  42.3686480  36.5476530
  41.8283320  43.1452480  35.2484790  42.7760500  53.8625390  50.8970860
  42.2381590  54.5871450  50.5779560  43.0294460  53.3855730  50.1068200
  44.0285750  41.8309910  52.4226790  44.6185440  41.5225760  53.1104610
  43.2105990  41.3589660  52.5786690  48.8479180  41.4475720  52.6559810
  48.1594700  40.7857260  52.5909800  49.5685200  41.0013990  53.1008270
  49.4779580  38.0427350  38.7150070  49.7581870  37.1995250  39.0709490
  48.7045310  38.2750460  39.2288820  45.6322710  55.0976600  51.1557510
  45.5581410  56.0011740  51.4629880  44.7301550  54.7788500  51.1279580
  44.0159000  39.2754360  37.1597270  43.6681000  38.5978350  36.5799720
  44.2171770  38.8143870  37.9740660  46.1808040  54.2635110  38.7783870
  47.0758830  54.6020080  38.8002630  46.2125670  53.5414520  38.1508150
  39.8204200  49.6362160  37.0070870  40.2579070  50.1791830  37.6628450
  40.3051930  48.8109110  37.0167210  37.0350000  52.4251190  44.4591130
  37.3653010  51.5572250  44.2269770  37.4641000  52.6309710  45.2896090
  41.6311920  50.7560200  42.1193100  41.3307460  50.6325170  43.0197010
  41.5249410  49.8968790  41.7108830  37.5240210  53.2921780  47.1972760
  37.0871200  53.4722580  48.0296910  38.0917890  54.0496400  47.0554480
  53.1602390  52.7938780  51.4850070  52.5604380  52.8531340  50.7413990
  53.2896290  51.8543760  51.6146920  54.4003840  50.5356600  36.8219780
  53.5696800  50.6033250  37.2927010  54.5775670  51.4260720  36.5186640
  53.8560300  47.2804080  39.3253980  54.6179210  47.8500730  39.4313670
  53.8714670  46.7131280  40.0962290  37.3564640  45.8042010  43.5561640
  36.7013480  45.5353650  42.9121340  38.1942590  45.6946490  43.1063620
  54.8620270  48.1354180  44.1695910  55.2329100  47.3521500  43.7631880
  55.5022200  48.8243280  43.9913210  51.8454030  49.5190760  49.5826230
  51.0313870  49.9487920  49.8452020  52.2528230  50.1309170  48.9695280
  53.9079470  47.5738450  36.4826500  54.1828310  48.4817330  36.3545720
  53.7190210  47.5100980  37.4188490  50.3055080  40.5983300  37.7780130
  50.7239960  40.4114280  36.9376790  49.9991140  39.7462350  38.0883060
  53.8044810  45.5107440  41.4755930  53.4288410  44.7435370  41.0437220
  53.0747930  45.8930140  41.9630860  38.3940570  46.1894580  48.0964980
  38.7613610  46.1021980  48.9761000  37.8251390  45.4261130  47.9971840
  53.1944430  44.6578960  51.1095450  52.9630520  44.4291710  50.2093400
  53.4548980  45.5778510  51.0640340  37.9456570  43.1003670  52.0023400
  37.0512620  43.0670430  52.3417110  38.4854120  43.2990460  52.7674650
  51.6332500  39.8835390  53.8875150  52.5102680  39.8918790  54.2709150
  51.6453340  39.1466230  53.2767500  36.5702720  43.0140940  39.4986970
  35.6666800  43.2771140  39.3238630  37.0543340  43.2852110  38.7186930
  53.0795770  43.7364930  44.7763170  53.6033250  43.2427580  44.1453340
  53.6655190  43.8715290  45.5210740  53.2585490  43.8204800  48.2982720
  52.3088200  43.7868340  48.4127710  53.4398500  44.7304910  48.0632490
  39.1129930  42.0706480  37.4081350  39.8221630  41.6489700  36.9228630
  38.3969870  42.1381710  36.7764700  52.5695740  42.9938280  40.7155580
  53.0654860  42.7609150  41.5004460  52.3711810  42.1550120  40.2993220
  38.4496280  37.3752000  46.3506620  39.0972470  36.8249380  45.9101780
  38.8698120  37.6295150  47.1722430  53.9982900  41.6299230  43.2493260
  53.8882180  41.4755270  44.1875530  54.7590490  41.1020170  43.0068670
  52.3448620  37.5693360  49.7076260  52.9820840  38.1827500  50.0735450
  52.4923510  37.6054020  48.7625490  54.8873170  39.4607150  36.4899400
  55.8122480  39.3288330  36.2817690  54.8648960  39.5399970  37.4435850
  54.9611660  40.2317810  39.1156110  54.1663160  40.1662930  39.6449020
  55.1654940  41.1668450  39.1041460  51.9030080  54.2709360  43.1094500
  52.4989150  53.9493930  42.4328920  52.1608230  53.7981180  43.9007770
  38.2028280  37.5307670  49.0931940  37.8543100  37.9871490  49.8590120
  37.8715980  36.6364800  49.1754370  39.8092650  50.7027270  53.2585130
  39.7662280  50.3320180  54.1399590  39.9403660  51.6404840  53.3986950
  43.5098680  52.2586860  48.8594850  43.2690040  52.5261420  47.9725370
  44.4501320  52.4292590  48.9145710  45.7153100  38.7219550  52.6151360
  45.6541990  39.3141380  53.3646770  46.6553480  38.6145510  52.4701620
  48.3527660  38.3789610  52.2543650  48.9668070  38.6968900  51.5924730
  48.8977220  37.8938200  52.8739510  54.7702840  54.2781240  49.6605490
  54.2761120  54.6750110  48.9432620  54.1616130  53.6530450  50.0542770
  38.8748920  37.0583870  52.3682710  39.4231910  36.8771920  51.6048820
  38.9404230  36.2677980  52.9039020  39.6480680  53.6489520  50.3782910
  39.0541000  53.5174220  51.1172950  39.6404520  52.8127660  49.9125010
  49.0935700  36.9421750  48.5812940  48.2195540  37.2756860  48.3785870
  48.9846450  36.4694930  49.4064810  50.0007680  39.1492620  49.9654660
  49.6721040  38.3344380  49.5856390  50.9489980  39.1062430  49.8420350
  52.4542290  54.9204660  46.9392230  51.9945260  55.6720470  46.5650250
  51.8254750  54.2011130  46.8807030  39.2792910  51.0147900  49.3290950
  38.5526970  50.3953190  49.2616900  39.3402060  51.4088510  48.4589030
  42.8838010  53.2292900  46.1140360  43.4003030  52.6180260  45.5888620
  43.5335390  53.7321680  46.6051370  45.6233510  54.1201390  46.9409340
  45.9111320  53.8655690  46.0642350  46.1356730  53.5678750  47.5314910
  46.8410520  37.8591590  47.5205850  46.0582310  38.3337090  47.8002610
  46.5473450  36.9546420  47.4119030  51.3931590  38.5614690  45.5654940
  51.8339680  38.5059790  44.7176540  51.1239180  39.4772700  45.6365120
  53.2570160  38.1929930  43.5763760  53.1958560  37.2491150  43.4294780
  54.0362190  38.3010020  44.1217220  37.5622910  54.3322290  42.5387710
  37.3944950  53.6992970  43.2369600  36.6957420  54.5381690  42.1881900
  44.7264740  40.2778340  43.0321880  43.9139250  39.9035230  42.6917760
  45.2306380  39.5223420  43.3343070  49.2289720  36.9420790  44.2704950
  49.8319090  37.5141000  44.7453470  48.4882710  37.5060230  44.0478850
  52.3724320  37.3442350  39.5445230  52.5674950  38.2425800  39.8112660
  51.5854190  37.1129430  40.0378180  39.1685610  53.0255520  39.9837850
  38.6433230  53.4063550  39.2799810  39.0930190  53.6506290  40.7047560
  42.7513920  38.4278260  41.6366930  42.1216660  37.7265570  41.8037060
  42.2119060  39.1882390  41.4200090  45.6905870  55.0417490  54.3077540
  46.6173180  54.8061760  54.3513500  45.6756300  55.8689490  53.8263570
  53.9250930  54.5843060  41.3051790  54.1003120  53.8980800  40.6612710
  53.2272500  55.1090110  40.9128460  42.8769480  37.7062240  54.0719420
  42.5953750  38.2095840  53.3080240  43.2589180  36.9083990  53.7061550
  41.7678580  54.9737900  38.8587100  42.4997400  54.6897180  38.3110990
  42.0272250  54.7351180  39.7486480  40.9293370  51.0902630  38.8633430
  40.3002250  51.5587730  39.4119260  41.0441200  50.2451850  39.2979620
  49.4784940  37.1215820  54.6499890  49.3650390  37.4410430  55.5451410
  50.2954680  37.5228330  54.3537170  52.2583430  54.2687350  54.1318580
  53.0508750  53.7736580  53.9244540  52.5516580  54.9477490  54.7394190
  48.3843090  45.1408290  25.0134630  48.3037140  44.2262900  24.7426340
  47.9707510  45.6375360  24.3074340  46.5161130  46.9187310  26.8943900
  45.7403230  46.4387750  27.1842470  47.1674060  46.2392960  26.7200060
  40.5326960  47.2307120  27.7719660  39.7011840  46.9755830  28.1716170
  41.1407940  47.3017890  28.5077580  50.5368560  51.3247500  25.6743030
  50.0750090  50.5534740  26.0030200  51.3494110  51.3513570  26.1795480
  40.5128220  51.2647210  27.9677680  40.8156260  50.3744950  27.7887900
  41.2571810  51.8217430  27.7399930  38.9418910  42.1909010  21.5562050
  38.0535610  42.5324980  21.4541930  39.2260100  41.9909330  20.6642880
  36.9051920  44.7914660  27.4401750  37.4768030  44.0236860  27.4405390
  36.9053460  45.0903420  26.5308360  46.7631870  53.6105510  25.2947020
  46.1443310  54.0663010  24.7241460  47.6183650  53.7656970  24.8936720
  45.9570120  49.5944500  26.9014060  45.8878400  48.6534440  26.7403190
  46.7189980  49.6845910  27.4736630  38.1476790  40.1999020  29.2270680
  37.9679630  39.3024770  29.5073440  37.7456870  40.7470890  29.9017630
  46.9875290  42.4014880  27.1282990  47.3640110  41.5286760  27.0156660
  46.8894800  42.7373580  26.2373430  41.1180300  40.7740510  22.5900430
  41.2247050  41.6744240  22.8969190  40.2072660  40.7258480  22.2995080
  50.7699410  39.8965320  24.0611330  51.5909030  39.4061890  24.1036810
  50.8033490  40.4862980  24.8143170  38.7663460  42.6959520  27.8353020
  39.4473570  42.9597890  28.4540420  38.4511510  41.8560390  28.1691030
  42.9588030  43.7426880  26.9225610  43.4666250  44.2407850  27.5630630
  43.4901270  42.9662080  26.7464970  55.0598960  41.9132070  30.6254960
  54.3551130  42.3013780  30.1070070  55.3256880  42.6082360  31.2275890
  41.2424130  38.3825440  31.1889030  41.2442570  38.8997830  30.3834930
  40.4128440  37.9055620  31.1658960  47.6295220  48.4944750  22.6878930
  47.0112490  48.9594200  22.1241650  48.1418470  49.1872230  23.1048440
  42.4926980  48.0220620  29.3662530  42.1596360  48.6489540  30.0083600
  42.6693660  48.5482500  28.5864200  51.0060890  41.8365700  26.8338870
  50.3016460  42.1250590  27.4141980  51.3673050  42.6465810  26.4738430
  40.9239460  40.0935400  29.1959480  41.2656270  40.9377450  28.9013350
  39.9855270  40.2419140  29.3124820  41.7046080  49.9901420  31.1811710
  42.3220080  50.6652500  30.8996160  40.8439200  50.3989400  31.0899210
  36.9978420  49.1801280  20.0618560  36.6206400  49.6688380  19.3303460
  37.2551490  49.8526560  20.6925090  52.6223670  51.4540830  29.0966350
  51.9387190  52.1239940  29.0883020  53.1617960  51.6521480  28.3311210
  54.0747810  41.2820490  27.2248080  53.1272720  41.3159470  27.3563510
  54.3997800  42.0959440  27.6097440  44.6067350  37.5817670  25.5204070
  44.9142330  37.0264560  24.8039570  43.6768050  37.7162130  25.3377060
  50.1582410  53.2984960  27.8111530  50.1709570  52.8947250  26.9433790
  49.6057630  54.0732250  27.7072960  51.4527830  50.0201180  22.9001700
  51.3424160  49.0775510  23.0251120  51.4496080  50.3816820  23.7864460
  49.5567850  48.2014800  29.1394140  49.9736640  47.9874910  28.3047600
  50.2807670  48.4587590  29.7102760  46.9948110  45.6466500  22.2564190
  46.0677390  45.5803880  22.4852660  47.1472930  46.5846630  22.1419430
  46.9817190  41.9183500  19.2531350  46.0420860  42.0797460  19.3383810
  47.3000450  42.6369180  18.7067340  53.5029950  46.6002020  29.2310380
  52.6748580  46.6695110  28.7560510  54.0980430  47.1856330  28.7626210
  51.0245400  47.2086800  22.7599440  50.4057820  46.8706350  22.1125740
  51.0069850  46.5646560  23.4678630  50.4671960  43.3871340  30.1765250
  50.0543140  44.2125050  30.4305240  49.7347910  42.8016380  29.9841610
  42.6004750  46.1731240  25.0383920  42.1961750  45.4608490  24.5429820
  42.6867870  45.8284480  25.9271960  43.0686450  49.8598800  27.2023130
  42.7714740  49.2544270  26.5230910  44.0186270  49.8976110  27.0912490
  41.3133370  42.9474450  28.8182960  41.8647960  43.0569790  28.0436210
  41.8276880  43.3212050  29.5338190  51.1572060  53.4330670  30.8646230
  50.6802620  54.2402860  30.6718840  50.4733850  52.7809000  31.0172440
  42.1604880  49.5980490  33.8530930  41.2633410  49.8220460  34.1004330
  42.1857750  49.7215430  32.9042330  49.2010100  46.4473610  19.7672190
  49.6403380  45.6096040  19.6210010  49.9138520  47.0803010  19.8536330
  40.9876100  46.4693810  32.4288300  40.8483870  47.3416610  32.7975700
  40.1057460  46.1266620  32.2836240  47.3105480  51.3869680  23.7353430
  47.7501390  52.1294010  23.3208820  47.2492370  51.6296250  24.6592390
  42.7856450  52.4115510  34.6373450  42.7571880  52.8158460  33.7701880
  42.6221420  51.4825870  34.4745050  52.7827240  37.7016420  18.0813230
  52.4699900  37.7943250  18.9812300  53.5439710  38.2797450  18.0310660
  39.3009380  45.0676220  22.5390570  39.1806980  45.7938310  21.9271840
  38.9910270  44.2979130  22.0618480  54.7371270  53.1942610  35.9337620
  55.2130990  53.6725500  36.6126700  55.3578430  53.1260100  35.2083120
  36.9394750  48.2391360  28.3459210  37.0175170  48.3740130  27.4014930
  37.5536430  47.5307250  28.5387330  38.1842380  49.9391550  24.7565390
  37.7770460  50.0806140  23.9018990  39.0755390  49.6551710  24.5536600
  54.1404520  50.3855460  33.0937630  54.2667580  50.1467340  32.1754810
  54.1825900  49.5540000  33.5659710  48.0021260  54.0883460  31.6632440
  48.5165930  53.9991470  32.4654870  47.1590340  54.4343160  31.9560350
  49.9775660  54.3738800  21.0916440  49.8176800  54.0841740  21.9898270
  49.8122370  53.5978930  20.5561670  42.4564040  54.1537330  22.8688060
  42.2806520  53.2372870  22.6555860  41.6019780  54.5124620  23.1085860
  49.6801790  51.8826360  19.6514440  48.9866950  51.8803650  18.9916720
  50.4224650  51.4585680  19.2208610  49.2451720  53.5089070  23.7262930
  49.7008670  52.7278450  24.0401550  49.5844240  54.2195890  24.2704110
  53.9928530  42.4387920  34.0587370  53.3772800  42.9467590  33.5302830
  53.6724950  41.5386250  34.0013310  36.9954270  49.2805530  30.8853670
  37.1585310  48.8110890  30.0673040  37.4606720  48.7729090  31.5502510
  41.7673040  38.4111290  25.9214240  41.3241190  39.1920830  25.5898760
  42.3258030  38.7341180  26.6285180  46.0542850  41.2779810  31.5249560
  45.5922220  41.4862830  32.3369500  45.6520960  40.4639160  31.2220230
  51.0547360  42.4988760  32.6546220  50.2040950  42.1994510  32.9755290
  50.8949150  42.7430770  31.7430040  48.1497070  43.9990510  34.7545010
  48.4750480  43.1654260  34.4147240  48.9377400  44.5219030  34.9023340
  44.8831860  38.0321990  20.8020070  44.2586040  38.0281860  21.5273380
  44.7961980  37.1652950  20.4056040  43.8048940  38.9558620  27.7803840
  44.1021270  39.8621450  27.6995860  44.3534500  38.4677400  27.1663410
  41.5587260  43.5344860  23.6495490  41.3328180  43.3182030  24.5542110
  40.7779790  43.9673320  23.3041460  48.7885020  43.5408230  22.2486140
  48.1893910  44.2644030  22.0649760  49.3364630  43.4785010  21.4662590
  43.9986470  44.4330440  34.3155760  43.9030070  43.4925170  34.1656160
  44.8418450  44.6545510  33.9203830  47.3949890  42.1771770  24.2789420
  47.7879460  42.4943970  23.4658110  47.7566740  41.2983650  24.3933940
  45.7042060  40.9279080  35.5386280  45.0140380  40.7351280  36.1732370
  46.4474360  41.2113720  36.0710580  36.4314060  38.7672570  26.5019620
  36.1427110  39.3375430  27.2144600  37.1759820  38.2877020  26.8650850
  36.6184290  42.7092690  17.7122340  36.5358960  43.6523450  17.8537330
  36.2667350  42.5667600  16.8334690  47.9805030  44.7677520  28.3740200
  47.2486150  45.2764330  28.7230300  47.5829370  43.9507500  28.0728980
  44.4182420  41.4431720  26.7792690  44.4218480  41.0021670  25.9297230
  45.3133540  41.7649050  26.8864510  40.2684800  41.3258210  25.7386900
  39.9284850  41.8033440  26.4953950  39.5062120  40.8723330  25.3788000
  44.4802570  42.4443800  19.7699450  44.6015390  42.4030280  20.7185270
  44.0951080  43.3067950  19.6146180  48.4430940  40.2211200  27.7863140
  48.4603680  40.6719850  28.6304990  48.1946520  39.3216840  27.9996580
  43.4924070  44.7544940  19.1682750  42.9240970  44.3063190  18.5418660
  44.2013070  45.1137720  18.6347900  51.8701690  37.6343380  33.6249520
  52.1947460  36.9033040  34.1507500  51.9058200  37.3157020  32.7230510
  38.5693250  48.6556960  33.0449480  38.1848040  48.0150630  33.6432440
  38.8805440  49.3593080  33.6144210  44.7190390  45.5033500  28.5258100
  45.0860520  45.0292070  29.2719440  44.5295450  46.3775070  28.8666440
  37.5830880  40.2477190  24.6551570  37.2977800  39.8832860  25.4930190
  37.5209740  39.5157650  24.0414710  42.5089760  44.5442140  30.8442310
  42.2046830  45.4234120  31.0692670  43.4636220  44.6041930  30.8799750
  41.0371550  48.7503130  21.4409160  40.2633810  48.2100750  21.2807880
  41.7666180  48.2309740  21.1026920  51.7959530  47.7468490  27.2335550
  52.5158650  48.2423780  26.8431660  51.5941350  47.0686380  26.5889420
  47.2569470  39.1406450  21.3764940  46.4434080  38.6419620  21.3010250
  47.0631420  39.9804700  20.9601290  47.1778330  47.8177550  33.1204550
  47.1115640  46.8973220  32.8662140  46.5483470  47.9152990  33.8349190
  49.9717860  43.5126100  19.6727100  50.8597480  43.8243330  19.4978440
  49.9422950  42.6398350  19.2807680  41.0808950  48.4183510  25.0787970
  41.5987620  47.6151770  25.0244860  40.6292970  48.3562650  25.9204800
  45.9678450  49.6849790  20.3515270  46.3094150  50.4292020  19.8558590
  45.1391160  49.9980910  20.7140100  38.5653490  45.3844880  31.9913670
  38.2068430  46.0498730  32.5787010  38.2708050  44.5528430  32.3626290
  41.7666610  45.8429120  34.8753220  41.4666750  45.9886300  33.9781040
  42.5377850  45.2834410  34.7826610  47.1095060  50.6398120  32.8708350
  47.1239600  49.7079080  32.6527260  46.4020160  50.7257880  33.5098120
  52.2432130  44.8237940  19.1406960  52.1595850  45.2552160  18.2903400
  52.9626320  45.2836290  19.5733780  53.3206270  47.2805460  32.2176930
  52.5954460  47.8734240  32.0206320  53.8481730  47.2729000  31.4190300
  53.2719380  51.6780200  21.8689090  52.6295540  51.0235820  22.1432810
  52.8850040  52.0835290  21.0929760  48.8505860  49.0065630  25.7160780
  49.2029680  48.4093760  25.0562150  47.9668190  48.6809860  25.8869030
  44.9369140  49.7663320  23.1231190  45.6240270  50.3132530  23.5038780
  44.1501560  50.3104050  23.1580800  37.0761540  45.3836140  18.6148270
  37.9456390  45.6660940  18.8984190  36.5851860  46.1972010  18.4997080
  44.2396350  46.7709350  22.7356550  44.6959130  47.5814600  22.9616740
  43.8884560  46.4532490  23.5675040  46.5428960  52.2815690  29.9648850
  47.1871180  52.4875070  30.6422270  46.9058400  51.5204090  29.5119700
  40.1408130  37.1147000  23.2079070  40.0122760  37.1064900  24.1563990
  39.3170150  37.4530090  22.8570080  47.8161040  50.2848040  28.6826300
  48.4583270  49.5841200  28.7958470  48.3410390  51.0646480  28.5023190
  51.6616760  50.5696660  18.4065440  51.4354340  49.8527100  18.9990080
  51.2712960  50.3209100  17.5687190  49.5898660  51.0842940  31.8862360
  49.9254900  51.6709630  32.5640280  48.6699000  50.9535650  32.1160150
  37.4432790  54.5963520  19.1809900  37.8030430  55.1952860  18.5267170
  37.3025130  55.1423410  19.9544930  51.2433010  48.4868600  20.0679600
  50.9554710  48.9481290  20.8557480  52.0385180  48.0266370  20.3363820
  37.4274650  52.8618380  33.6552300  37.5365770  51.9213120  33.5147690
  36.7755210  53.1273130  33.0066030  45.4187240  51.1334270  35.0550420
  45.0984110  50.4143510  35.5996110  44.7445600  51.8089340  35.1286480
  43.4601410  51.9794720  19.9983570  43.4511510  52.7124410  19.3828080
  42.5399770  51.7326300  20.0910530  39.0608050  47.2009610  20.7430330
  38.4536000  47.9408510  20.7525630  39.5357400  47.2908970  19.9168530
  48.6340840  41.3660430  30.4187220  49.0021660  40.5455640  30.7466790
  47.7739040  41.4262320  30.8342870  52.0002870  40.3217370  21.2274780
  51.3716030  40.4263040  20.5133010  51.5054790  40.5414150  22.0168660
  46.4461010  52.0422960  18.6608760  46.5472990  51.8386950  17.7310740
  45.5462750  51.7881240  18.8656540  43.9686900  42.6003320  22.6432660
  43.2603050  43.0689660  23.0846270  44.2531380  41.9425330  23.2777850
  45.5942830  44.0200020  30.6425190  46.0928080  44.4945840  31.3077040
  45.7365780  43.0963540  30.8495220  48.0002330  39.3253980  24.0828450
  47.8770110  39.3440110  23.1337960  48.9486890  39.3732920  24.2026850
  45.0879120  54.5609280  23.3556430  45.3420620  54.5230670  22.4335800
  44.1391600  54.4342610  23.3484680  42.1721920  40.9088400  20.0183370
  43.0212450  41.3458550  19.9523560  41.8053190  41.2208660  20.8455430
  52.8009690  40.2367980  31.4853580  52.2983290  40.9773380  31.8247390
  53.6166350  40.6251980  31.1690370  51.0931700  45.4801160  24.9314940
  50.1521840  45.4951390  25.1062630  51.4075770  44.6937120  25.3775240
  41.0713340  47.1620760  18.4918900  41.8376610  47.0502120  19.0544330
  41.1488030  46.4658730  17.8395670  39.7660100  44.5945830  19.1751790
  39.8463690  43.6473340  19.2869190  40.6579850  44.9252710  19.2812450
  53.0957280  52.6510010  26.6069200  53.2204700  53.4741180  27.0793010
  53.9622840  52.4400740  26.2593350  40.5674810  54.7441220  26.2786330
  41.3037290  54.1956680  26.5494900  40.9515730  55.6097230  26.1392320
  37.4520290  50.8114790  22.1527840  36.5260070  51.0535930  22.1433250
  37.9176720  51.6389050  22.0312590  39.5733090  53.9287290  35.4671910
  40.3745820  54.2499340  35.8807310  39.0584910  53.5682870  36.1891820
  43.6777120  53.9171530  18.1011900  44.4705730  54.2060360  17.6493690
  43.1581470  53.4863700  17.4224380  48.4097720  50.0367160  35.4147320
  47.8035880  50.0598760  34.6743070  48.1051830  49.3050200  35.9514570
  49.8398090  53.7647450  34.0256730  50.7919840  53.6805470  33.9756970
  49.6926310  54.4289160  34.6990520  52.7307290  53.1441660  19.5248640
  52.4448800  52.7306800  18.7102820  52.5326840  54.0729370  19.4049160
  37.2930900  46.4160750  34.4107960  37.7969920  45.8368030  34.9824190
  36.5538320  46.7000980  34.9484330  44.1954520  49.1374940  17.9654250
  44.0905160  48.5227290  18.6915630  44.0278740  48.6140830  17.1817260
  44.3468840  47.8231740  33.9443480  43.5814510  48.3916740  33.8598150
  44.5284800  47.5307950  33.0511710  47.4357250  48.1994970  18.5696240
  46.8867350  48.6464270  19.2138980  48.0576510  47.6944220  19.0933910
  51.4892190  49.5537070  34.5018500  52.2301660  49.8912830  33.9985960
  50.7264870  49.7229130  33.9488270  39.3253980  44.5590340  35.3058030
  39.3659320  44.2604210  36.2143260  40.1799480  44.9597950  35.1465550
  43.1032370  47.1585890  20.4661540  43.5248790  46.9925760  21.3092930
  43.2283210  46.3486120  19.9716680  41.2659790  43.1382440  33.2732520
  40.7356250  42.6473390  32.6455860  41.9347860  43.5666640  32.7390450
  45.6160010  46.1823500  17.7138640  46.1365670  45.4672520  17.3479790
  46.2628410  46.8209370  18.0139150  50.1637850  47.6051900  33.0373710
  50.5778870  47.7596980  33.8864130  49.2288850  47.7307120  33.1999490
  50.6360020  44.9448060  35.0412860  51.2180790  44.1900380  34.9533340
  50.8121790  45.4755500  34.2644340  44.5193530  38.6618050  30.3857200
  44.0710830  38.6842310  29.5402750  43.8858730  38.2637070  30.9827500
  44.9253080  47.5572380  31.0069640  45.3441190  48.4005110  30.8345880
  44.0061710  47.6944420  30.7776420  47.2616980  45.2888560  32.3907480
  47.3813190  44.6929700  33.1302320  48.1210980  45.3258250  31.9708780
  49.6004880  45.8425750  30.9669990  49.0740100  46.3668370  30.3635130
  49.9436220  46.4753140  31.5979720  41.9991270  43.2319120  17.4119700
  41.7980330  42.3686480  17.7733040  41.8283320  43.1452480  16.4741300
  42.7760500  53.8625390  32.1227370  42.2381590  54.5871450  31.8036070
  43.0294460  53.3855730  31.3324710  44.0285750  41.8309910  33.6483300
  44.6185440  41.5225760  34.3361120  43.2105990  41.3589660  33.8043200
  48.8479180  41.4475720  33.8816320  48.1594700  40.7857260  33.8166310
  49.5685200  41.0013990  34.3264780  49.4779580  38.0427350  19.9406580
  49.7581870  37.1995250  20.2966000  48.7045310  38.2750460  20.4545330
  40.7974070  40.3319740  17.3997580  41.0999970  40.3387170  16.4916730
  41.5368660  39.9817600  17.8965240  45.6322710  55.0976600  32.3814020
  45.5581410  56.0011740  32.6886390  44.7301550  54.7788500  32.3536090
  44.0159000  39.2754360  18.3853780  43.6681000  38.5978350  17.8056230
  44.2171770  38.8143870  19.1997170  46.1808040  54.2635110  20.0040380
  47.0758830  54.6020080  20.0259140  46.2125670  53.5414520  19.3764660
  39.8204200  49.6362160  18.2327380  40.2579070  50.1791830  18.8884960
  40.3051930  48.8109110  18.2423720  37.0350000  52.4251190  25.6847640
  37.3653010  51.5572250  25.4526280  37.4641000  52.6309710  26.5152600
  41.6311920  50.7560200  23.3449610  41.3307460  50.6325170  24.2453520
  41.5249410  49.8968790  22.9365340  37.5240210  53.2921780  28.4229270
  37.0871200  53.4722580  29.2553420  38.0917890  54.0496400  28.2810990
  53.1602390  52.7938780  32.7106580  52.5604380  52.8531340  31.9670500
  53.2896290  51.8543760  32.8403430  54.4003840  50.5356600  18.0476290
  53.5696800  50.6033250  18.5183520  54.5775670  51.4260720  17.7443150
  53.8560300  47.2804080  20.5510490  54.6179210  47.8500730  20.6570180
  53.8714670  46.7131280  21.3218800  37.3564640  45.8042010  24.7818150
  36.7013480  45.5353650  24.1377850  38.1942590  45.6946490  24.3320130
  54.8620270  48.1354180  25.3952420  55.2329100  47.3521500  24.9888390
  55.5022200  48.8243280  25.2169720  51.8454030  49.5190760  30.8082740
  51.0313870  49.9487920  31.0708530  52.2528230  50.1309170  30.1951790
  53.9079470  47.5738450  17.7083010  54.1828310  48.4817330  17.5802230
  53.7190210  47.5100980  18.6445000  50.3055080  40.5983300  19.0036640
  50.7239960  40.4114280  18.1633300  49.9991140  39.7462350  19.3139570
  53.8044810  45.5107440  22.7012440  53.4288410  44.7435370  22.2693730
  53.0747930  45.8930140  23.1887370  38.3940570  46.1894580  29.3221490
  38.7613610  46.1021980  30.2017510  37.8251390  45.4261130  29.2228350
  53.1944430  44.6578960  32.3351960  52.9630520  44.4291710  31.4349910
  53.4548980  45.5778510  32.2896850  37.9456570  43.1003670  33.2279910
  37.0512620  43.0670430  33.5673620  38.4854120  43.2990460  33.9931160
  51.6332500  39.8835390  35.1131660  52.5102680  39.8918790  35.4965660
  51.6453340  39.1466230  34.5024010  36.5702720  43.0140940  20.7243480
  35.6666800  43.2771140  20.5495140  37.0543340  43.2852110  19.9443440
  53.0795770  43.7364930  26.0019680  53.6033250  43.2427580  25.3709850
  53.6655190  43.8715290  26.7467250  53.2585490  43.8204800  29.5239230
  52.3088200  43.7868340  29.6384220  53.4398500  44.7304910  29.2889000
  39.1129930  42.0706480  18.6337860  39.8221630  41.6489700  18.1485140
  38.3969870  42.1381710  18.0021210  38.7604090  38.1245810  17.6740510
  39.4832220  38.6654750  17.9921730  39.0328610  37.8509230  16.7982050
  52.5695740  42.9938280  21.9412090  53.0654860  42.7609150  22.7260970
  52.3711810  42.1550120  21.5249730  38.4496280  37.3752000  27.5763130
  39.0972470  36.8249380  27.1358290  38.8698120  37.6295150  28.3978940
  53.9982900  41.6299230  24.4749770  53.8882180  41.4755270  25.4132040
  54.7590490  41.1020170  24.2325180  52.3448620  37.5693360  30.9332770
  52.9820840  38.1827500  31.2991960  52.4923510  37.6054020  29.9882000
  54.8873170  39.4607150  17.7155910  55.8122480  39.3288330  17.5074200
  54.8648960  39.5399970  18.6692360  54.9611660  40.2317810  20.3412620
  54.1663160  40.1662930  20.8705530  55.1654940  41.1668450  20.3297970
  51.9030080  54.2709360  24.3351010  52.4989150  53.9493930  23.6585430
  52.1608230  53.7981180  25.1264280  38.2028280  37.5307670  30.3188450
  37.8543100  37.9871490  31.0846630  37.8715980  36.6364800  30.4010880
  39.8092650  50.7027270  34.4841640  39.7662280  50.3320180  35.3656100
  39.9403660  51.6404840  34.6243460  43.5098680  52.2586860  30.0851360
  43.2690040  52.5261420  29.1981880  44.4501320  52.4292590  30.1402220
  45.7153100  38.7219550  33.8407870  45.6541990  39.3141380  34.5903280
  46.6553480  38.6145510  33.6958130  48.3527660  38.3789610  33.4800160
  48.9668070  38.6968900  32.8181240  48.8977220  37.8938200  34.0996020
  54.7702840  54.2781240  30.8862000  54.2761120  54.6750110  30.1689130
  54.1616130  53.6530450  31.2799280  39.6480680  53.6489520  31.6039420
  39.0541000  53.5174220  32.3429460  39.6404520  52.8127660  31.1381520
  49.0935700  36.9421750  29.8069450  48.2195540  37.2756860  29.6042380
  48.9846450  36.4694930  30.6321320  50.0007680  39.1492620  31.1911170
  49.6721040  38.3344380  30.8112900  50.9489980  39.1062430  31.0676860
  52.4542290  54.9204660  28.1648740  51.9945260  55.6720470  27.7906760
  51.8254750  54.2011130  28.1063540  39.2792910  51.0147900  30.5547460
  38.5526970  50.3953190  30.4873410  39.3402060  51.4088510  29.6845540
  42.8838010  53.2292900  27.3396870  43.4003030  52.6180260  26.8145130
  43.5335390  53.7321680  27.8307880  45.6233510  54.1201390  28.1665850
  45.9111320  53.8655690  27.2898860  46.1356730  53.5678750  28.7571420
  46.8410520  37.8591590  28.7462360  46.0582310  38.3337090  29.0259120
  46.5473450  36.9546420  28.6375540  51.3931590  38.5614690  26.7911450
  51.8339680  38.5059790  25.9433050  51.1239180  39.4772700  26.8621630
  53.2570160  38.1929930  24.8020270  53.1958560  37.2491150  24.6551290
  54.0362190  38.3010020  25.3473730  37.5622910  54.3322290  23.7644220
  37.3944950  53.6992970  24.4626110  36.6957420  54.5381690  23.4138410
  38.1850930  38.1639070  21.2676080  38.9430290  38.2767950  20.6940110
  37.7228100  39.0008270  21.2219510  44.7264740  40.2778340  24.2578390
  43.9139250  39.9035230  23.9174270  45.2306380  39.5223420  24.5599580
  49.2289720  36.9420790  25.4961460  49.8319090  37.5141000  25.9709980
  48.4882710  37.5060230  25.2735360  52.3724320  37.3442350  20.7701740
  52.5674950  38.2425800  21.0369170  51.5854190  37.1129430  21.2634690
  39.1685610  53.0255520  21.2094360  38.6433230  53.4063550  20.5056320
  39.0930190  53.6506290  21.9304070  40.5576080  38.6903120  19.8078050
  41.0868840  37.9032920  19.6786000  41.1904400  39.3694310  20.0413580
  42.7513920  38.4278260  22.8623440  42.1216660  37.7265570  23.0293570
  42.2119060  39.1882390  22.6456600  45.6905870  55.0417490  35.5334050
  46.6173180  54.8061760  35.5770010  45.6756300  55.8689490  35.0520080
  53.9250930  54.5843060  22.5308300  54.1003120  53.8980800  21.8869220
  53.2272500  55.1090110  22.1384970  42.8769480  37.7062240  35.2975930
  42.5953750  38.2095840  34.5336750  43.2589180  36.9083990  34.9318060
  41.7678580  54.9737900  20.0843610  42.4997400  54.6897180  19.5367500
  42.0272250  54.7351180  20.9742990  40.9293370  51.0902630  20.0889940
  40.3002250  51.5587730  20.6375770  41.0441200  50.2451850  20.5236130
  49.4784940  37.1215820  35.8756400  49.3650390  37.4410430  36.7707920
  50.2954680  37.5228330  35.5793680  52.2583430  54.2687350  35.3575090
  53.0508750  53.7736580  35.1501050  52.5516580  54.9477490  35.9650700
  48.3843090  45.1408290   6.2391140  48.3037140  44.2262900   5.9682850
  47.9707510  45.6375360   5.5330850  46.5161130  46.9187310   8.1200410
  45.7403230  46.4387750   8.4098980  47.1674060  46.2392960   7.9456570
  40.5326960  47.2307120   8.9976170  39.7011840  46.9755830   9.3972680
  41.1407940  47.3017890   9.7334090  50.5368560  51.3247500   6.8999540
  50.0750090  50.5534740   7.2286710  51.3494110  51.3513570   7.4051990
  40.5128220  51.2647210   9.1934190  40.8156260  50.3744950   9.0144410
  41.2571810  51.8217430   8.9656440  38.9418910  42.1909010   2.7818560
  38.0535610  42.5324980   2.6798440  39.2260100  41.9909330   1.8899390
  36.9051920  44.7914660   8.6658260  37.4768030  44.0236860   8.6661900
  36.9053460  45.0903420   7.7564870  46.7631870  53.6105510   6.5203530
  46.1443310  54.0663010   5.9497970  47.6183650  53.7656970   6.1193230
  45.9570120  49.5944500   8.1270570  45.8878400  48.6534440   7.9659700
  46.7189980  49.6845910   8.6993140  38.1476790  40.1999020  10.4527190
  37.9679630  39.3024770  10.7329950  37.7456870  40.7470890  11.1274140
  46.9875290  42.4014880   8.3539500  47.3640110  41.5286760   8.2413170
  46.8894800  42.7373580   7.4629940  41.1180300  40.7740510   3.8156940
  41.2247050  41.6744240   4.1225700  40.2072660  40.7258480   3.5251590
  50.7699410  39.8965320   5.2867840  51.5909030  39.4061890   5.3293320
  50.8033490  40.4862980   6.0399680  38.7663460  42.6959520   9.0609530
  39.4473570  42.9597890   9.6796930  38.4511510  41.8560390   9.3947540
  42.9588030  43.7426880   8.1482120  43.4666250  44.2407850   8.7887140
  43.4901270  42.9662080   7.9721480  55.0598960  41.9132070  11.8511470
  54.3551130  42.3013780  11.3326580  55.3256880  42.6082360  12.4532400
  41.2424130  38.3825440  12.4145540  41.2442570  38.8997830  11.6091440
  40.4128440  37.9055620  12.3915470  47.6295220  48.4944750   3.9135440
  47.0112490  48.9594200   3.3498160  48.1418470  49.1872230   4.3304950
  42.4926980  48.0220620  10.5919040  42.1596360  48.6489540  11.2340110
  42.6693660  48.5482500   9.8120710  51.0060890  41.8365700   8.0595380
  50.3016460  42.1250590   8.6398490  51.3673050  42.6465810   7.6994940
  40.9239460  40.0935400  10.4215990  41.2656270  40.9377450  10.1269860
  39.9855270  40.2419140  10.5381330  41.7046080  49.9901420  12.4068220
  42.3220080  50.6652500  12.1252670  40.8439200  50.3989400  12.3155720
  52.6223670  51.4540830  10.3222860  51.9387190  52.1239940  10.3139530
  53.1617960  51.6521480   9.5567720  54.0747810  41.2820490   8.4504590
  53.1272720  41.3159470   8.5820020  54.3997800  42.0959440   8.8353950
  44.6067350  37.5817670   6.7460580  44.9142330  37.0264560   6.0296080
  43.6768050  37.7162130   6.5633570  50.1582410  53.2984960   9.0368040
  50.1709570  52.8947250   8.1690300  49.6057630  54.0732250   8.9329470
  51.4527830  50.0201180   4.1258210  51.3424160  49.0775510   4.2507630
  51.4496080  50.3816820   5.0120970  49.5567850  48.2014800  10.3650650
  49.9736640  47.9874910   9.5304110  50.2807670  48.4587590  10.9359270
  46.9948110  45.6466500   3.4820700  46.0677390  45.5803880   3.7109170
  47.1472930  46.5846630   3.3675940  53.5029950  46.6002020  10.4566890
  52.6748580  46.6695110   9.9817020  54.0980430  47.1856330   9.9882720
  51.0245400  47.2086800   3.9855950  50.4057820  46.8706350   3.3382250
  51.0069850  46.5646560   4.6935140  50.4671960  43.3871340  11.4021760
  50.0543140  44.2125050  11.6561750  49.7347910  42.8016380  11.2098120
  42.6004750  46.1731240   6.2640430  42.1961750  45.4608490   5.7686330
  42.6867870  45.8284480   7.1528470  43.0686450  49.8598800   8.4279640
  42.7714740  49.2544270   7.7487420  44.0186270  49.8976110   8.3169000
  41.3133370  42.9474450  10.0439470  41.8647960  43.0569790   9.2692720
  41.8276880  43.3212050  10.7594700  51.1572060  53.4330670  12.0902740
  50.6802620  54.2402860  11.8975350  50.4733850  52.7809000  12.2428950
  42.1604880  49.5980490  15.0787440  41.2633410  49.8220460  15.3260840
  42.1857750  49.7215430  14.1298840  40.9876100  46.4693810  13.6544810
  40.8483870  47.3416610  14.0232210  40.1057460  46.1266620  13.5092750
  47.3105480  51.3869680   4.9609940  47.7501390  52.1294010   4.5465330
  47.2492370  51.6296250   5.8848900  42.7856450  52.4115510  15.8629960
  42.7571880  52.8158460  14.9958390  42.6221420  51.4825870  15.7001560
  39.3009380  45.0676220   3.7647080  39.1806980  45.7938310   3.1528350
  38.9910270  44.2979130   3.2874990  54.7371270  53.1942610  17.1594130
  55.2130990  53.6725500  17.8383210  55.3578430  53.1260100  16.4339630
  36.9394750  48.2391360   9.5715720  37.0175170  48.3740130   8.6271440
  37.5536430  47.5307250   9.7643840  38.1842380  49.9391550   5.9821900
  37.7770460  50.0806140   5.1275500  39.0755390  49.6551710   5.7793110
  54.1404520  50.3855460  14.3194140  54.2667580  50.1467340  13.4011320
  54.1825900  49.5540000  14.7916220  48.0021260  54.0883460  12.8888950
  48.5165930  53.9991470  13.6911380  47.1590340  54.4343160  13.1816860
  49.9775660  54.3738800   2.3172950  49.8176800  54.0841740   3.2154780
  49.8122370  53.5978930   1.7818180  42.4564040  54.1537330   4.0944570
  42.2806520  53.2372870   3.8812370  41.6019780  54.5124620   4.3342370
  49.2451720  53.5089070   4.9519440  49.7008670  52.7278450   5.2658060
  49.5844240  54.2195890   5.4960620  53.9928530  42.4387920  15.2843880
  53.3772800  42.9467590  14.7559340  53.6724950  41.5386250  15.2269820
  36.9954270  49.2805530  12.1110180  37.1585310  48.8110890  11.2929550
  37.4606720  48.7729090  12.7759020  41.7673040  38.4111290   7.1470750
  41.3241190  39.1920830   6.8155270  42.3258030  38.7341180   7.8541690
  46.0542850  41.2779810  12.7506070  45.5922220  41.4862830  13.5626010
  45.6520960  40.4639160  12.4476740  51.0547360  42.4988760  13.8802730
  50.2040950  42.1994510  14.2011800  50.8949150  42.7430770  12.9686550
  48.1497070  43.9990510  15.9801520  48.4750480  43.1654260  15.6403750
  48.9377400  44.5219030  16.1279850  43.8048940  38.9558620   9.0060350
  44.1021270  39.8621450   8.9252370  44.3534500  38.4677400   8.3919920
  41.5587260  43.5344860   4.8752000  41.3328180  43.3182030   5.7798620
  40.7779790  43.9673320   4.5297970  48.7885020  43.5408230   3.4742650
  48.1893910  44.2644030   3.2906270  49.3364630  43.4785010   2.6919100
  43.9986470  44.4330440  15.5412270  43.9030070  43.4925170  15.3912670
  44.8418450  44.6545510  15.1460340  47.3949890  42.1771770   5.5045930
  47.7879460  42.4943970   4.6914620  47.7566740  41.2983650   5.6190450
  39.1297010  40.8444110  13.6946050  38.7360400  41.6919320  13.9018830
  38.4415410  40.2070480  13.8854690  45.7042060  40.9279080  16.7642790
  45.0140380  40.7351280  17.3988880  46.4474360  41.2113720  17.2967090
  36.4314060  38.7672570   7.7276130  36.1427110  39.3375430   8.4401110
  37.1759820  38.2877020   8.0907360  47.9805030  44.7677520   9.5996710
  47.2486150  45.2764330   9.9486810  47.5829370  43.9507500   9.2985490
  44.4182420  41.4431720   8.0049200  44.4218480  41.0021670   7.1553740
  45.3133540  41.7649050   8.1121020  40.2684800  41.3258210   6.9643410
  39.9284850  41.8033440   7.7210460  39.5062120  40.8723330   6.6044510
  48.4430940  40.2211200   9.0119650  48.4603680  40.6719850   9.8561500
  48.1946520  39.3216840   9.2253090  51.8701690  37.6343380  14.8506030
  52.1947460  36.9033040  15.3764010  51.9058200  37.3157020  13.9487020
  38.5693250  48.6556960  14.2705990  38.1848040  48.0150630  14.8688950
  38.8805440  49.3593080  14.8400720  44.7190390  45.5033500   9.7514610
  45.0860520  45.0292070  10.4975950  44.5295450  46.3775070  10.0922950
  37.5830880  40.2477190   5.8808080  37.2977800  39.8832860   6.7186700
  37.5209740  39.5157650   5.2671220  42.5089760  44.5442140  12.0698820
  42.2046830  45.4234120  12.2949180  43.4636220  44.6041930  12.1056260
  41.0371550  48.7503130   2.6665670  40.2633810  48.2100750   2.5064390
  41.7666180  48.2309740   2.3283430  51.7959530  47.7468490   8.4592060
  52.5158650  48.2423780   8.0688170  51.5941350  47.0686380   7.8145930
  47.2569470  39.1406450   2.6021450  46.4434080  38.6419620   2.5266760
  47.0631420  39.9804700   2.1857800  47.1778330  47.8177550  14.3461060
  47.1115640  46.8973220  14.0918650  46.5483470  47.9152990  15.0605700
  41.0808950  48.4183510   6.3044480  41.5987620  47.6151770   6.2501370
  40.6292970  48.3562650   7.1461310  38.5653490  45.3844880  13.2170180
  38.2068430  46.0498730  13.8043520  38.2708050  44.5528430  13.5882800
  41.7666610  45.8429120  16.1009730  41.4666750  45.9886300  15.2037550
  42.5377850  45.2834410  16.0083120  47.1095060  50.6398120  14.0964860
  47.1239600  49.7079080  13.8783770  46.4020160  50.7257880  14.7354630
  53.3206270  47.2805460  13.4433440  52.5954460  47.8734240  13.2462830
  53.8481730  47.2729000  12.6446810  53.2719380  51.6780200   3.0945600
  52.6295540  51.0235820   3.3689320  52.8850040  52.0835290   2.3186270
  48.8505860  49.0065630   6.9417290  49.2029680  48.4093760   6.2818660
  47.9668190  48.6809860   7.1125540  44.9369140  49.7663320   4.3487700
  45.6240270  50.3132530   4.7295290  44.1501560  50.3104050   4.3837310
  44.2396350  46.7709350   3.9613060  44.6959130  47.5814600   4.1873250
  43.8884560  46.4532490   4.7931550  46.5428960  52.2815690  11.1905360
  47.1871180  52.4875070  11.8678780  46.9058400  51.5204090  10.7376210
  40.1408130  37.1147000   4.4335580  40.0122760  37.1064900   5.3820500
  39.3170150  37.4530090   4.0826590  47.8161040  50.2848040   9.9082810
  48.4583270  49.5841200  10.0214980  48.3410390  51.0646480   9.7279700
  49.5898660  51.0842940  13.1118870  49.9254900  51.6709630  13.7896790
  48.6699000  50.9535650  13.3416660  37.1402060  38.8738120  13.8942280
  36.4260580  39.0735040  14.4994890  37.5597100  38.0977690  14.2657080
  37.4274650  52.8618380  14.8808810  37.5365770  51.9213120  14.7404200
  36.7755210  53.1273130  14.2322540  45.4187240  51.1334270  16.2806930
  45.0984110  50.4143510  16.8252620  44.7445600  51.8089340  16.3542990
  48.6340840  41.3660430  11.6443730  49.0021660  40.5455640  11.9723300
  47.7739040  41.4262320  12.0599380  52.0002870  40.3217370   2.4531290
  51.3716030  40.4263040   1.7389520  51.5054790  40.5414150   3.2425170
  43.9686900  42.6003320   3.8689170  43.2603050  43.0689660   4.3102780
  44.2531380  41.9425330   4.5034360  45.5942830  44.0200020  11.8681700
  46.0928080  44.4945840  12.5333550  45.7365780  43.0963540  12.0751730
  48.0002330  39.3253980   5.3084960  47.8770110  39.3440110   4.3594470
  48.9486890  39.3732920   5.4283360  45.0879120  54.5609280   4.5812940
  45.3420620  54.5230670   3.6592310  44.1391600  54.4342610   4.5741190
  52.8009690  40.2367980  12.7110090  52.2983290  40.9773380  13.0503900
  53.6166350  40.6251980  12.3946880  51.0931700  45.4801160   6.1571450
  50.1521840  45.4951390   6.3319140  51.4075770  44.6937120   6.6031750
  53.0957280  52.6510010   7.8325710  53.2204700  53.4741180   8.3049520
  53.9622840  52.4400740   7.4849860  40.5674810  54.7441220   7.5042840
  41.3037290  54.1956680   7.7751410  40.9515730  55.6097230   7.3648830
  37.4520290  50.8114790   3.3784350  36.5260070  51.0535930   3.3689760
  37.9176720  51.6389050   3.2569100  39.5733090  53.9287290  16.6928420
  40.3745820  54.2499340  17.1063820  39.0584910  53.5682870  17.4148330
  48.4097720  50.0367160  16.6403830  47.8035880  50.0598760  15.8999580
  48.1051830  49.3050200  17.1771080  49.8398090  53.7647450  15.2513240
  50.7919840  53.6805470  15.2013480  49.6926310  54.4289160  15.9247030
  37.2930900  46.4160750  15.6364470  37.7969920  45.8368030  16.2080700
  36.5538320  46.7000980  16.1740840  44.3468840  47.8231740  15.1699990
  43.5814510  48.3916740  15.0854660  44.5284800  47.5307950  14.2768220
  51.4892190  49.5537070  15.7275010  52.2301660  49.8912830  15.2242470
  50.7264870  49.7229130  15.1744780  39.3253980  44.5590340  16.5314540
  39.3659320  44.2604210  17.4399770  40.1799480  44.9597950  16.3722060
  41.2659790  43.1382440  14.4989030  40.7356250  42.6473390  13.8712370
  41.9347860  43.5666640  13.9646960  50.1637850  47.6051900  14.2630220
  50.5778870  47.7596980  15.1120640  49.2288850  47.7307120  14.4256000
  50.6360020  44.9448060  16.2669370  51.2180790  44.1900380  16.1789850
  50.8121790  45.4755500  15.4900850  41.7532090  40.1044810  14.5786320
  41.6588960  39.4865560  13.8537190  41.1729480  40.8311100  14.3516230
  44.5193530  38.6618050  11.6113710  44.0710830  38.6842310  10.7659260
  43.8858730  38.2637070  12.2084010  44.9253080  47.5572380  12.2326150
  45.3441190  48.4005110  12.0602390  44.0061710  47.6944420  12.0032930
  47.2616980  45.2888560  13.6163990  47.3813190  44.6929700  14.3558830
  48.1210980  45.3258250  13.1965290  49.6004880  45.8425750  12.1926500
  49.0740100  46.3668370  11.5891640  49.9436220  46.4753140  12.8236230
  42.7760500  53.8625390  13.3483880  42.2381590  54.5871450  13.0292580
  43.0294460  53.3855730  12.5581220  44.0285750  41.8309910  14.8739810
  44.6185440  41.5225760  15.5617630  43.2105990  41.3589660  15.0299710
  48.8479180  41.4475720  15.1072830  48.1594700  40.7857260  15.0422820
  49.5685200  41.0013990  15.5521290  45.6322710  55.0976600  13.6070530
  45.5581410  56.0011740  13.9142900  44.7301550  54.7788500  13.5792600
  37.0350000  52.4251190   6.9104150  37.3653010  51.5572250   6.6782790
  37.4641000  52.6309710   7.7409110  41.6311920  50.7560200   4.5706120
  41.3307460  50.6325170   5.4710030  41.5249410  49.8968790   4.1621850
  37.5240210  53.2921780   9.6485780  37.0871200  53.4722580  10.4809930
  38.0917890  54.0496400   9.5067500  53.1602390  52.7938780  13.9363090
  52.5604380  52.8531340  13.1927010  53.2896290  51.8543760  14.0659940
  53.8560300  47.2804080   1.7767000  54.6179210  47.8500730   1.8826690
  53.8714670  46.7131280   2.5475310  37.3564640  45.8042010   6.0074660
  36.7013480  45.5353650   5.3634360  38.1942590  45.6946490   5.5576640
  54.8620270  48.1354180   6.6208930  55.2329100  47.3521500   6.2144900
  55.5022200  48.8243280   6.4426230  51.8454030  49.5190760  12.0339250
  51.0313870  49.9487920  12.2965040  52.2528230  50.1309170  11.4208300
  53.8044810  45.5107440   3.9268950  53.4288410  44.7435370   3.4950240
  53.0747930  45.8930140   4.4143880  38.3940570  46.1894580  10.5478000
  38.7613610  46.1021980  11.4274020  37.8251390  45.4261130  10.4484860
  53.1944430  44.6578960  13.5608470  52.9630520  44.4291710  12.6606420
  53.4548980  45.5778510  13.5153360  37.9456570  43.1003670  14.4536420
  37.0512620  43.0670430  14.7930130  38.4854120  43.2990460  15.2187670
  51.6332500  39.8835390  16.3388170  52.5102680  39.8918790  16.7222170
  51.6453340  39.1466230  15.7280520  53.0795770  43.7364930   7.2276190
  53.6033250  43.2427580   6.5966360  53.6655190  43.8715290   7.9723760
  53.2585490  43.8204800  10.7495740  52.3088200  43.7868340  10.8640730
  53.4398500  44.7304910  10.5145510  52.5695740  42.9938280   3.1668600
  53.0654860  42.7609150   3.9517480  52.3711810  42.1550120   2.7506240
  38.4496280  37.3752000   8.8019640  39.0972470  36.8249380   8.3614800
  38.8698120  37.6295150   9.6235450  53.9982900  41.6299230   5.7006280
  53.8882180  41.4755270   6.6388550  54.7590490  41.1020170   5.4581690
  52.3448620  37.5693360  12.1589280  52.9820840  38.1827500  12.5248470
  52.4923510  37.6054020  11.2138510  51.9030080  54.2709360   5.5607520
  52.4989150  53.9493930   4.8841940  52.1608230  53.7981180   6.3520790
  38.2028280  37.5307670  11.5444960  37.8543100  37.9871490  12.3103140
  37.8715980  36.6364800  11.6267390  39.8092650  50.7027270  15.7098150
  39.7662280  50.3320180  16.5912610  39.9403660  51.6404840  15.8499970
  43.5098680  52.2586860  11.3107870  43.2690040  52.5261420  10.4238390
  44.4501320  52.4292590  11.3658730  45.7153100  38.7219550  15.0664380
  45.6541990  39.3141380  15.8159790  46.6553480  38.6145510  14.9214640
  48.3527660  38.3789610  14.7056670  48.9668070  38.6968900  14.0437750
  48.8977220  37.8938200  15.3252530  54.7702840  54.2781240  12.1118510
  54.2761120  54.6750110  11.3945640  54.1616130  53.6530450  12.5055790
  38.8748920  37.0583870  14.8195730  39.4231910  36.8771920  14.0561840
  38.9404230  36.2677980  15.3552040  39.6480680  53.6489520  12.8295930
  39.0541000  53.5174220  13.5685970  39.6404520  52.8127660  12.3638030
  49.0935700  36.9421750  11.0325960  48.2195540  37.2756860  10.8298890
  48.9846450  36.4694930  11.8577830  50.0007680  39.1492620  12.4167680
  49.6721040  38.3344380  12.0369410  50.9489980  39.1062430  12.2933370
  52.4542290  54.9204660   9.3905250  51.9945260  55.6720470   9.0163270
  51.8254750  54.2011130   9.3320050  39.2792910  51.0147900  11.7803970
  38.5526970  50.3953190  11.7129920  39.3402060  51.4088510  10.9102050
  42.8838010  53.2292900   8.5653380  43.4003030  52.6180260   8.0401640
  43.5335390  53.7321680   9.0564390  45.6233510  54.1201390   9.3922360
  45.9111320  53.8655690   8.5155370  46.1356730  53.5678750   9.9827930
  46.8410520  37.8591590   9.9718870  46.0582310  38.3337090  10.2515630
  46.5473450  36.9546420   9.8632050  51.3931590  38.5614690   8.0167960
  51.8339680  38.5059790   7.1689560  51.1239180  39.4772700   8.0878140
  53.2570160  38.1929930   6.0276780  53.1958560  37.2491150   5.8807800
  54.0362190  38.3010020   6.5730240  37.5622910  54.3322290   4.9900730
  37.3944950  53.6992970   5.6882620  36.6957420  54.5381690   4.6394920
  38.1850930  38.1639070   2.4932590  38.9430290  38.2767950   1.9196620
  37.7228100  39.0008270   2.4476020  44.7264740  40.2778340   5.4834900
  43.9139250  39.9035230   5.1430780  45.2306380  39.5223420   5.7856090
  49.2289720  36.9420790   6.7217970  49.8319090  37.5141000   7.1966490
  48.4882710  37.5060230   6.4991870  52.3724320  37.3442350   1.9958250
  52.5674950  38.2425800   2.2625680  51.5854190  37.1129430   2.4891200
  39.1685610  53.0255520   2.4350870  38.6433230  53.4063550   1.7312830
  39.0930190  53.6506290   3.1560580  42.7513920  38.4278260   4.0879950
  42.1216660  37.7265570   4.2550080  42.2119060  39.1882390   3.8713110
  45.6905870  55.0417490  16.7590560  46.6173180  54.8061760  16.8026520
  45.6756300  55.8689490  16.2776590  53.9250930  54.5843060   3.7564810
  54.1003120  53.8980800   3.1125730  53.2272500  55.1090110   3.3641480
  42.8769480  37.7062240  16.5232440  42.5953750  38.2095840  15.7593260
  43.2589180  36.9083990  16.1574570  49.4784940  37.1215820  17.1012910
  49.3650390  37.4410430  17.9964430  50.2954680  37.5228330  16.8050190
  52.2583430  54.2687350  16.5831600  53.0508750  53.7736580  16.3757560
  52.5516580  54.9477490  17.1907210  48.3843090  26.3664800  62.5621610
  48.3037140  25.4519410  62.2913320  47.9707510  26.8631870  61.8561320
  46.5161130  28.1443820  64.4430880  45.7403230  27.6644260  64.7329450
  47.1674060  27.4649470  64.2687040  40.5326960  28.4563630  65.3206640
  39.7011840  28.2012340  65.7203150  41.1407940  28.5274400  66.0564560
  50.5368560  32.5504010  63.2230010  50.0750090  31.7791250  63.5517180
  51.3494110  32.5770080  63.7282460  40.5128220  32.4903720  65.5164660
  40.8156260  31.6001460  65.3374880  41.2571810  33.0473940  65.2886910
  38.9418910  23.4165520  59.1049030  38.0535610  23.7581490  59.0028910
  39.2260100  23.2165840  58.2129860  36.9051920  26.0171170  64.9888730
  37.4768030  25.2493370  64.9892370  36.9053460  26.3159930  64.0795340
  46.7631870  34.8362020  62.8434000  46.1443310  35.2919520  62.2728440
  47.6183650  34.9913480  62.4423700  45.9570120  30.8201010  64.4501040
  45.8878400  29.8790950  64.2890170  46.7189980  30.9102420  65.0223610
  38.1476790  21.4255530  66.7757660  37.9679630  20.5281280  67.0560420
  37.7456870  21.9727400  67.4504610  46.9875290  23.6271390  64.6769970
  47.3640110  22.7543270  64.5643640  46.8894800  23.9630090  63.7860410
  41.1180300  21.9997020  60.1387410  41.2247050  22.9000750  60.4456170
  40.2072660  21.9514990  59.8482060  50.7699410  21.1221830  61.6098310
  51.5909030  20.6318400  61.6523790  50.8033490  21.7119490  62.3630150
  38.7663460  23.9216030  65.3840000  39.4473570  24.1854400  66.0027400
  38.4511510  23.0816900  65.7178010  42.9588030  24.9683390  64.4712590
  43.4666250  25.4664360  65.1117610  43.4901270  24.1918590  64.2951950
  55.0598960  23.1388580  68.1741940  54.3551130  23.5270290  67.6557050
  55.3256880  23.8338870  68.7762870  41.2424130  19.6081950  68.7376010
  41.2442570  20.1254340  67.9321910  40.4128440  19.1312130  68.7145940
  47.6295220  29.7201260  60.2365910  47.0112490  30.1850710  59.6728630
  48.1418470  30.4128740  60.6535420  42.4926980  29.2477130  66.9149510
  42.1596360  29.8746050  67.5570580  42.6693660  29.7739010  66.1351180
  51.0060890  23.0622210  64.3825850  50.3016460  23.3507100  64.9628960
  51.3673050  23.8722320  64.0225410  40.9239460  21.3191910  66.7446460
  41.2656270  22.1633960  66.4500330  39.9855270  21.4675650  66.8611800
  41.7046080  31.2157930  68.7298690  42.3220080  31.8909010  68.4483140
  40.8439200  31.6245910  68.6386190  36.9978420  30.4057790  57.6105540
  36.6206400  30.8944890  56.8790440  37.2551490  31.0783070  58.2412070
  52.6223670  32.6797340  66.6453330  51.9387190  33.3496450  66.6370000
  53.1617960  32.8777990  65.8798190  54.0747810  22.5077000  64.7735060
  53.1272720  22.5415980  64.9050490  54.3997800  23.3215950  65.1584420
  44.6067350  18.8074180  63.0691050  44.9142330  18.2521070  62.3526550
  43.6768050  18.9418640  62.8864040  50.1582410  34.5241470  65.3598510
  50.1709570  34.1203760  64.4920770  49.6057630  35.2988760  65.2559940
  51.4527830  31.2457690  60.4488680  51.3424160  30.3032020  60.5738100
  51.4496080  31.6073330  61.3351440  49.5567850  29.4271310  66.6881120
  49.9736640  29.2131420  65.8534580  50.2807670  29.6844100  67.2589740
  46.9948110  26.8723010  59.8051170  46.0677390  26.8060390  60.0339640
  47.1472930  27.8103140  59.6906410  46.9817190  23.1440010  56.8018330
  46.0420860  23.3053970  56.8870790  47.3000450  23.8625690  56.2554320
  53.5029950  27.8258530  66.7797360  52.6748580  27.8951620  66.3047490
  54.0980430  28.4112840  66.3113190  51.0245400  28.4343310  60.3086420
  50.4057820  28.0962860  59.6612720  51.0069850  27.7903070  61.0165610
  50.4671960  24.6127850  67.7252230  50.0543140  25.4381560  67.9792220
  49.7347910  24.0272890  67.5328590  42.6004750  27.3987750  62.5870900
  42.1961750  26.6865000  62.0916800  42.6867870  27.0540990  63.4758940
  43.0686450  31.0855310  64.7510110  42.7714740  30.4800780  64.0717890
  44.0186270  31.1232620  64.6399470  41.3133370  24.1730960  66.3669940
  41.8647960  24.2826300  65.5923190  41.8276880  24.5468560  67.0825170
  51.1572060  34.6587180  68.4133210  50.6802620  35.4659370  68.2205820
  50.4733850  34.0065510  68.5659420  49.2010100  27.6730120  57.3159170
  49.6403380  26.8352550  57.1696990  49.9138520  28.3059520  57.4023310
  47.3105480  32.6126190  61.2840410  47.7501390  33.3550520  60.8695800
  47.2492370  32.8552760  62.2079370  52.7827240  18.9272930  55.6300210
  52.4699900  19.0199760  56.5299280  53.5439710  19.5053960  55.5797640
  39.3009380  26.2932730  60.0877550  39.1806980  27.0194820  59.4758820
  38.9910270  25.5235640  59.6105460  36.9394750  29.4647870  65.8946190
  37.0175170  29.5996640  64.9501910  37.5536430  28.7563760  66.0874310
  38.1842380  31.1648060  62.3052370  37.7770460  31.3062650  61.4505970
  39.0755390  30.8808220  62.1023580  48.0021260  35.3139970  69.2119420
  48.5165930  35.2247980  70.0141850  47.1590340  35.6599670  69.5047330
  49.9775660  35.5995310  58.6403420  49.8176800  35.3098250  59.5385250
  49.8122370  34.8235440  58.1048650  42.4564040  35.3793840  60.4175040
  42.2806520  34.4629380  60.2042840  41.6019780  35.7381130  60.6572840
  49.6801790  33.1082870  57.2001420  48.9866950  33.1060160  56.5403700
  50.4224650  32.6842190  56.7695590  49.2451720  34.7345580  61.2749910
  49.7008670  33.9534960  61.5888530  49.5844240  35.4452400  61.8191090
  36.9954270  30.5062040  68.4340650  37.1585310  30.0367400  67.6160020
  37.4606720  29.9985600  69.0989490  41.7673040  19.6367800  63.4701220
  41.3241190  20.4177340  63.1385740  42.3258030  19.9597690  64.1772160
  46.0542850  22.5036320  69.0736540  45.5922220  22.7119340  69.8856480
  45.6520960  21.6895670  68.7707210  44.8831860  19.2578500  58.3507050
  44.2586040  19.2538370  59.0760360  44.7961980  18.3909460  57.9543020
  43.8048940  20.1815130  65.3290820  44.1021270  21.0877960  65.2482840
  44.3534500  19.6933910  64.7150390  41.5587260  24.7601370  61.1982470
  41.3328180  24.5438540  62.1029090  40.7779790  25.1929830  60.8528440
  48.7885020  24.7664740  59.7973120  48.1893910  25.4900540  59.6136740
  49.3364630  24.7041520  59.0149570  47.3949890  23.4028280  61.8276400
  47.7879460  23.7200480  61.0145090  47.7566740  22.5240160  61.9420920
  39.1297010  22.0700620  70.0176520  38.7360400  22.9175830  70.2249300
  38.4415410  21.4326990  70.2085160  36.4314060  19.9929080  64.0506600
  36.1427110  20.5631940  64.7631580  37.1759820  19.5133530  64.4137830
  36.6184290  23.9349200  55.2609320  36.5358960  24.8779960  55.4024310
  36.2667350  23.7924110  54.3821670  47.9805030  25.9934030  65.9227180
  47.2486150  26.5020840  66.2717280  47.5829370  25.1764010  65.6215960
  44.4182420  22.6688230  64.3279670  44.4218480  22.2278180  63.4784210
  45.3133540  22.9905560  64.4351490  40.2684800  22.5514720  63.2873880
  39.9284850  23.0289950  64.0440930  39.5062120  22.0979840  62.9274980
  44.4802570  23.6700310  57.3186430  44.6015390  23.6286790  58.2672250
  44.0951080  24.5324460  57.1633160  48.4430940  21.4467710  65.3350120
  48.4603680  21.8976360  66.1791970  48.1946520  20.5473350  65.5483560
  43.4924070  25.9801450  56.7169730  42.9240970  25.5319700  56.0905640
  44.2013070  26.3394230  56.1834880  44.7190390  26.7290010  66.0745080
  45.0860520  26.2548580  66.8206420  44.5295450  27.6031580  66.4153420
  37.5830880  21.4733700  62.2038550  37.2977800  21.1089370  63.0417170
  37.5209740  20.7414160  61.5901690  42.5089760  25.7698650  68.3929290
  42.2046830  26.6490630  68.6179650  43.4636220  25.8298440  68.4286730
  41.0371550  29.9759640  58.9896140  40.2633810  29.4357260  58.8294860
  41.7666180  29.4566250  58.6513900  51.7959530  28.9725000  64.7822530
  52.5158650  29.4680290  64.3918640  51.5941350  28.2942890  64.1376400
  47.2569470  20.3662960  58.9251920  46.4434080  19.8676130  58.8497230
  47.0631420  21.2061210  58.5088270  49.9717860  24.7382610  57.2214080
  50.8597480  25.0499840  57.0465420  49.9422950  23.8654860  56.8294660
  41.0808950  29.6440020  62.6274950  41.5987620  28.8408280  62.5731840
  40.6292970  29.5819160  63.4691780  45.9678450  30.9106300  57.9002250
  46.3094150  31.6548530  57.4045570  45.1391160  31.2237420  58.2627080
  38.5653490  26.6101390  69.5400650  38.2068430  27.2755240  70.1273990
  38.2708050  25.7784940  69.9113270  52.2432130  26.0494450  56.6893940
  52.1595850  26.4808670  55.8390380  52.9626320  26.5092800  57.1220760
  53.3206270  28.5061970  69.7663910  52.5954460  29.0990750  69.5693300
  53.8481730  28.4985510  68.9677280  53.2719380  32.9036710  59.4176070
  52.6295540  32.2492330  59.6919790  52.8850040  33.3091800  58.6416740
  48.8505860  30.2322140  63.2647760  49.2029680  29.6350270  62.6049130
  47.9668190  29.9066370  63.4356010  44.9369140  30.9919830  60.6718170
  45.6240270  31.5389040  61.0525760  44.1501560  31.5360560  60.7067780
  37.0761540  26.6092650  56.1635250  37.9456390  26.8917450  56.4471170
  36.5851860  27.4228520  56.0484060  44.2396350  27.9965860  60.2843530
  44.6959130  28.8071110  60.5103720  43.8884560  27.6789000  61.1162020
  46.5428960  33.5072200  67.5135830  47.1871180  33.7131580  68.1909250
  46.9058400  32.7460600  67.0606680  40.1408130  18.3403510  60.7566050
  40.0122760  18.3321410  61.7050970  39.3170150  18.6786600  60.4057060
  47.8161040  31.5104550  66.2313280  48.4583270  30.8097710  66.3445450
  48.3410390  32.2902990  66.0510170  51.6616760  31.7953170  55.9552420
  51.4354340  31.0783610  56.5477060  51.2712960  31.5465610  55.1174170
  49.5898660  32.3099450  69.4349340  49.9254900  32.8966140  70.1127260
  48.6699000  32.1792160  69.6647130  37.4432790  35.8220030  56.7296880
  37.8030430  36.4209370  56.0754150  37.3025130  36.3679920  57.5031910
  51.2433010  29.7125110  57.6166580  50.9554710  30.1737800  58.4044460
  52.0385180  29.2522880  57.8850800  43.4601410  33.2051230  57.5470550
  43.4511510  33.9380920  56.9315060  42.5399770  32.9582810  57.6397510
  39.0608050  28.4266120  58.2917310  38.4536000  29.1665020  58.3012610
  39.5357400  28.5165480  57.4655510  48.6340840  22.5916940  67.9674200
  49.0021660  21.7712150  68.2953770  47.7739040  22.6518830  68.3829850
  52.0002870  21.5473880  58.7761760  51.3716030  21.6519550  58.0619990
  51.5054790  21.7670660  59.5655640  46.4461010  33.2679470  56.2095740
  46.5472990  33.0643460  55.2797720  45.5462750  33.0137750  56.4143520
  43.9686900  23.8259830  60.1919640  43.2603050  24.2946170  60.6333250
  44.2531380  23.1681840  60.8264830  45.5942830  25.2456530  68.1912170
  46.0928080  25.7202350  68.8564020  45.7365780  24.3220050  68.3982200
  48.0002330  20.5510490  61.6315430  47.8770110  20.5696620  60.6824940
  48.9486890  20.5989430  61.7513830  45.0879120  35.7865790  60.9043410
  45.3420620  35.7487180  59.9822780  44.1391600  35.6599120  60.8971660
  42.1721920  22.1344910  57.5670350  43.0212450  22.5715060  57.5010540
  41.8053190  22.4465170  58.3942410  52.8009690  21.4624490  69.0340560
  52.2983290  22.2029890  69.3734370  53.6166350  21.8508490  68.7177350
  51.0931700  26.7057670  62.4801920  50.1521840  26.7207900  62.6549610
  51.4075770  25.9193630  62.9262220  41.0713340  28.3877270  56.0405880
  41.8376610  28.2758630  56.6031310  41.1488030  27.6915240  55.3882650
  39.7660100  25.8202340  56.7238770  39.8463690  24.8729850  56.8356170
  40.6579850  26.1509220  56.8299430  53.0957280  33.8766520  64.1556180
  53.2204700  34.6997690  64.6279990  53.9622840  33.6657250  63.8080330
  40.5674810  35.9697730  63.8273310  41.3037290  35.4213190  64.0981880
  40.9515730  36.8353740  63.6879300  37.4520290  32.0371300  59.7014820
  36.5260070  32.2792440  59.6920230  37.9176720  32.8645560  59.5799570
  43.6777120  35.1428040  55.6498880  44.4705730  35.4316870  55.1980670
  43.1581470  34.7120210  54.9711360  52.7307290  34.3698170  57.0735620
  52.4448800  33.9563310  56.2589800  52.5326840  35.2985880  56.9536140
  44.1954520  30.3631450  55.5141230  44.0905160  29.7483800  56.2402610
  44.0278740  29.8397340  54.7304240  47.4357250  29.4251480  56.1183220
  46.8867350  29.8720780  56.7625960  48.0576510  28.9200730  56.6420890
  43.1032370  28.3842400  58.0148520  43.5248790  28.2182270  58.8579910
  43.2283210  27.5742630  57.5203660  44.5193530  19.8874560  67.9344180
  44.0710830  19.9098820  67.0889730  43.8858730  19.4893580  68.5314480
  44.9253080  28.7828890  68.5556620  45.3441190  29.6261620  68.3832860
  44.0061710  28.9200930  68.3263400  49.6004880  27.0682260  68.5156970
  49.0740100  27.5924880  67.9122110  49.9436220  27.7009650  69.1466700
  41.9991270  24.4575630  54.9606680  41.7980330  23.5942990  55.3220020
  41.8283320  24.3708990  54.0228280  42.7760500  35.0881900  69.6714350
  42.2381590  35.8127960  69.3523050  43.0294460  34.6112240  68.8811690
  49.4779580  19.2683860  57.4893560  49.7581870  18.4251760  57.8452980
  48.7045310  19.5006970  58.0032310  40.7974070  21.5576250  54.9484560
  41.0999970  21.5643680  54.0403710  41.5368660  21.2074110  55.4452220
  45.6322710  36.3233110  69.9301000  45.5581410  37.2268250  70.2373370
  44.7301550  36.0045010  69.9023070  44.0159000  20.5010870  55.9340760
  43.6681000  19.8234860  55.3543210  44.2171770  20.0400380  56.7484150
  46.1808040  35.4891620  57.5527360  47.0758830  35.8276590  57.5746120
  46.2125670  34.7671030  56.9251640  39.8204200  30.8618670  55.7814360
  40.2579070  31.4048340  56.4371940  40.3051930  30.0365620  55.7910700
  37.0350000  33.6507700  63.2334620  37.3653010  32.7828760  63.0013260
  37.4641000  33.8566220  64.0639580  41.6311920  31.9816710  60.8936590
  41.3307460  31.8581680  61.7940500  41.5249410  31.1225300  60.4852320
  37.5240210  34.5178290  65.9716250  37.0871200  34.6979090  66.8040400
  38.0917890  35.2752910  65.8297970  54.4003840  31.7613110  55.5963270
  53.5696800  31.8289760  56.0670500  54.5775670  32.6517230  55.2930130
  53.8560300  28.5060590  58.0997470  54.6179210  29.0757240  58.2057160
  53.8714670  27.9387790  58.8705780  37.3564640  27.0298520  62.3305130
  36.7013480  26.7610160  61.6864830  38.1942590  26.9203000  61.8807110
  54.8620270  29.3610690  62.9439400  55.2329100  28.5778010  62.5375370
  55.5022200  30.0499790  62.7656700  51.8454030  30.7447270  68.3569720
  51.0313870  31.1744430  68.6195510  52.2528230  31.3565680  67.7438770
  53.9079470  28.7994960  55.2569990  54.1828310  29.7073840  55.1289210
  53.7190210  28.7357490  56.1931980  50.3055080  21.8239810  56.5523620
  50.7239960  21.6370790  55.7120280  49.9991140  20.9718860  56.8626550
  53.8044810  26.7363950  60.2499420  53.4288410  25.9691880  59.8180710
  53.0747930  27.1186650  60.7374350  38.3940570  27.4151090  66.8708470
  38.7613610  27.3278490  67.7504490  37.8251390  26.6517640  66.7715330
  53.1944430  25.8835470  69.8838940  52.9630520  25.6548220  68.9836890
  53.4548980  26.8035020  69.8383830  36.5702720  24.2397450  58.2730460
  35.6666800  24.5027650  58.0982120  37.0543340  24.5108620  57.4930420
  53.0795770  24.9621440  63.5506660  53.6033250  24.4684090  62.9196830
  53.6655190  25.0971800  64.2954230  53.2585490  25.0461310  67.0726210
  52.3088200  25.0124850  67.1871200  53.4398500  25.9561420  66.8375980
  39.1129930  23.2962990  56.1824840  39.8221630  22.8746210  55.6972120
  38.3969870  23.3638220  55.5508190  38.7604090  19.3502320  55.2227490
  39.4832220  19.8911260  55.5408710  39.0328610  19.0765740  54.3469030
  52.5695740  24.2194790  59.4899070  53.0654860  23.9865660  60.2747950
  52.3711810  23.3806630  59.0736710  38.4496280  18.6008510  65.1250110
  39.0972470  18.0505890  64.6845270  38.8698120  18.8551660  65.9465920
  53.9982900  22.8555740  62.0236750  53.8882180  22.7011780  62.9619020
  54.7590490  22.3276680  61.7812160  52.3448620  18.7949870  68.4819750
  52.9820840  19.4084010  68.8478940  52.4923510  18.8310530  67.5368980
  54.8873170  20.6863660  55.2642890  55.8122480  20.5544840  55.0561180
  54.8648960  20.7656480  56.2179340  54.9611660  21.4574320  57.8899600
  54.1663160  21.3919440  58.4192510  55.1654940  22.3924960  57.8784950
  51.9030080  35.4965870  61.8837990  52.4989150  35.1750440  61.2072410
  52.1608230  35.0237690  62.6751260  38.2028280  18.7564180  67.8675430
  37.8543100  19.2128000  68.6333610  37.8715980  17.8621310  67.9497860
  43.5098680  33.4843370  67.6338340  43.2690040  33.7517930  66.7468860
  44.4501320  33.6549100  67.6889200  54.7702840  35.5037750  68.4348980
  54.2761120  35.9006620  67.7176110  54.1616130  34.8786960  68.8286260
  39.6480680  34.8746030  69.1526400  39.0541000  34.7430730  69.8916440
  39.6404520  34.0384170  68.6868500  49.0935700  18.1678260  67.3556430
  48.2195540  18.5013370  67.1529360  48.9846450  17.6951440  68.1808300
  50.0007680  20.3749130  68.7398150  49.6721040  19.5600890  68.3599880
  50.9489980  20.3318940  68.6163840  52.4542290  36.1461170  65.7135720
  51.9945260  36.8976980  65.3393740  51.8254750  35.4267640  65.6550520
  39.2792910  32.2404410  68.1034440  38.5526970  31.6209700  68.0360390
  39.3402060  32.6345020  67.2332520  42.8838010  34.4549410  64.8883850
  43.4003030  33.8436770  64.3632110  43.5335390  34.9578190  65.3794860
  45.6233510  35.3457900  65.7152830  45.9111320  35.0912200  64.8385840
  46.1356730  34.7935260  66.3058400  46.8410520  19.0848100  66.2949340
  46.0582310  19.5593600  66.5746100  46.5473450  18.1802930  66.1862520
  51.3931590  19.7871200  64.3398430  51.8339680  19.7316300  63.4920030
  51.1239180  20.7029210  64.4108610  53.2570160  19.4186440  62.3507250
  53.1958560  18.4747660  62.2038270  54.0362190  19.5266530  62.8960710
  37.5622910  35.5578800  61.3131200  37.3944950  34.9249480  62.0113090
  36.6957420  35.7638200  60.9625390  38.1850930  19.3895580  58.8163060
  38.9430290  19.5024460  58.2427090  37.7228100  20.2264780  58.7706490
  44.7264740  21.5034850  61.8065370  43.9139250  21.1291740  61.4661250
  45.2306380  20.7479930  62.1086560  49.2289720  18.1677300  63.0448440
  49.8319090  18.7397510  63.5196960  48.4882710  18.7316740  62.8222340
  52.3724320  18.5698860  58.3188720  52.5674950  19.4682310  58.5856150
  51.5854190  18.3385940  58.8121670  39.1685610  34.2512030  58.7581340
  38.6433230  34.6320060  58.0543300  39.0930190  34.8762800  59.4791050
  40.5576080  19.9159630  57.3565030  41.0868840  19.1289430  57.2272980
  41.1904400  20.5950820  57.5900560  42.7513920  19.6534770  60.4110420
  42.1216660  18.9522080  60.5780550  42.2119060  20.4138900  60.1943580
  53.9250930  35.8099570  60.0795280  54.1003120  35.1237310  59.4356200
  53.2272500  36.3346620  59.6871950  41.7678580  36.1994410  57.6330590
  42.4997400  35.9153690  57.0854480  42.0272250  35.9607690  58.5229970
  40.9293370  32.3159140  57.6376920  40.3002250  32.7844240  58.1862750
  41.0441200  31.4708360  58.0723110  48.3843090  26.3664800  43.7878120
  48.3037140  25.4519410  43.5169830  47.9707510  26.8631870  43.0817830
  46.5161130  28.1443820  45.6687390  45.7403230  27.6644260  45.9585960
  47.1674060  27.4649470  45.4943550  40.5326960  28.4563630  46.5463150
  39.7011840  28.2012340  46.9459660  41.1407940  28.5274400  47.2821070
  50.5368560  32.5504010  44.4486520  50.0750090  31.7791250  44.7773690
  51.3494110  32.5770080  44.9538970  40.5128220  32.4903720  46.7421170
  40.8156260  31.6001460  46.5631390  41.2571810  33.0473940  46.5143420
  38.9418910  23.4165520  40.3305540  38.0535610  23.7581490  40.2285420
  39.2260100  23.2165840  39.4386370  36.9051920  26.0171170  46.2145240
  37.4768030  25.2493370  46.2148880  36.9053460  26.3159930  45.3051850
  46.7631870  34.8362020  44.0690510  46.1443310  35.2919520  43.4984950
  47.6183650  34.9913480  43.6680210  45.9570120  30.8201010  45.6757550
  45.8878400  29.8790950  45.5146680  46.7189980  30.9102420  46.2480120
  38.1476790  21.4255530  48.0014170  37.9679630  20.5281280  48.2816930
  37.7456870  21.9727400  48.6761120  46.9875290  23.6271390  45.9026480
  47.3640110  22.7543270  45.7900150  46.8894800  23.9630090  45.0116920
  41.1180300  21.9997020  41.3643920  41.2247050  22.9000750  41.6712680
  40.2072660  21.9514990  41.0738570  50.7699410  21.1221830  42.8354820
  51.5909030  20.6318400  42.8780300  50.8033490  21.7119490  43.5886660
  38.7663460  23.9216030  46.6096510  39.4473570  24.1854400  47.2283910
  38.4511510  23.0816900  46.9434520  42.9588030  24.9683390  45.6969100
  43.4666250  25.4664360  46.3374120  43.4901270  24.1918590  45.5208460
  55.0598960  23.1388580  49.3998450  54.3551130  23.5270290  48.8813560
  55.3256880  23.8338870  50.0019380  41.2424130  19.6081950  49.9632520
  41.2442570  20.1254340  49.1578420  40.4128440  19.1312130  49.9402450
  47.6295220  29.7201260  41.4622420  47.0112490  30.1850710  40.8985140
  48.1418470  30.4128740  41.8791930  42.4926980  29.2477130  48.1406020
  42.1596360  29.8746050  48.7827090  42.6693660  29.7739010  47.3607690
  51.0060890  23.0622210  45.6082360  50.3016460  23.3507100  46.1885470
  51.3673050  23.8722320  45.2481920  40.9239460  21.3191910  47.9702970
  41.2656270  22.1633960  47.6756840  39.9855270  21.4675650  48.0868310
  41.7046080  31.2157930  49.9555200  42.3220080  31.8909010  49.6739650
  40.8439200  31.6245910  49.8642700  36.9978420  30.4057790  38.8362050
  36.6206400  30.8944890  38.1046950  37.2551490  31.0783070  39.4668580
  52.6223670  32.6797340  47.8709840  51.9387190  33.3496450  47.8626510
  53.1617960  32.8777990  47.1054700  54.0747810  22.5077000  45.9991570
  53.1272720  22.5415980  46.1307000  54.3997800  23.3215950  46.3840930
  44.6067350  18.8074180  44.2947560  44.9142330  18.2521070  43.5783060
  43.6768050  18.9418640  44.1120550  50.1582410  34.5241470  46.5855020
  50.1709570  34.1203760  45.7177280  49.6057630  35.2988760  46.4816450
  51.4527830  31.2457690  41.6745190  51.3424160  30.3032020  41.7994610
  51.4496080  31.6073330  42.5607950  49.5567850  29.4271310  47.9137630
  49.9736640  29.2131420  47.0791090  50.2807670  29.6844100  48.4846250
  46.9948110  26.8723010  41.0307680  46.0677390  26.8060390  41.2596150
  47.1472930  27.8103140  40.9162920  46.9817190  23.1440010  38.0274840
  46.0420860  23.3053970  38.1127300  47.3000450  23.8625690  37.4810830
  53.5029950  27.8258530  48.0053870  52.6748580  27.8951620  47.5304000
  54.0980430  28.4112840  47.5369700  51.0245400  28.4343310  41.5342930
  50.4057820  28.0962860  40.8869230  51.0069850  27.7903070  42.2422120
  50.4671960  24.6127850  48.9508740  50.0543140  25.4381560  49.2048730
  49.7347910  24.0272890  48.7585100  42.6004750  27.3987750  43.8127410
  42.1961750  26.6865000  43.3173310  42.6867870  27.0540990  44.7015450
  43.0686450  31.0855310  45.9766620  42.7714740  30.4800780  45.2974400
  44.0186270  31.1232620  45.8655980  41.3133370  24.1730960  47.5926450
  41.8647960  24.2826300  46.8179700  41.8276880  24.5468560  48.3081680
  51.1572060  34.6587180  49.6389720  50.6802620  35.4659370  49.4462330
  50.4733850  34.0065510  49.7915930  42.1604880  30.8237000  52.6274420
  41.2633410  31.0476970  52.8747820  42.1857750  30.9471940  51.6785820
  49.2010100  27.6730120  38.5415680  49.6403380  26.8352550  38.3953500
  49.9138520  28.3059520  38.6279820  40.9876100  27.6950320  51.2031790
  40.8483870  28.5673120  51.5719190  40.1057460  27.3523130  51.0579730
  47.3105480  32.6126190  42.5096920  47.7501390  33.3550520  42.0952310
  47.2492370  32.8552760  43.4335880  42.7856450  33.6372020  53.4116940
  42.7571880  34.0414970  52.5445370  42.6221420  32.7082380  53.2488540
  52.7827240  18.9272930  36.8556720  52.4699900  19.0199760  37.7555790
  53.5439710  19.5053960  36.8054150  39.3009380  26.2932730  41.3134060
  39.1806980  27.0194820  40.7015330  38.9910270  25.5235640  40.8361970
  54.7371270  34.4199120  54.7081110  55.2130990  34.8982010  55.3870190
  55.3578430  34.3516610  53.9826610  36.9394750  29.4647870  47.1202700
  37.0175170  29.5996640  46.1758420  37.5536430  28.7563760  47.3130820
  38.1842380  31.1648060  43.5308880  37.7770460  31.3062650  42.6762480
  39.0755390  30.8808220  43.3280090  54.1404520  31.6111970  51.8681120
  54.2667580  31.3723850  50.9498300  54.1825900  30.7796510  52.3403200
  48.0021260  35.3139970  50.4375930  48.5165930  35.2247980  51.2398360
  47.1590340  35.6599670  50.7303840  49.9775660  35.5995310  39.8659930
  49.8176800  35.3098250  40.7641760  49.8122370  34.8235440  39.3305160
  42.4564040  35.3793840  41.6431550  42.2806520  34.4629380  41.4299350
  41.6019780  35.7381130  41.8829350  49.6801790  33.1082870  38.4257930
  48.9866950  33.1060160  37.7660210  50.4224650  32.6842190  37.9952100
  49.2451720  34.7345580  42.5006420  49.7008670  33.9534960  42.8145040
  49.5844240  35.4452400  43.0447600  53.9928530  23.6644430  52.8330860
  53.3772800  24.1724100  52.3046320  53.6724950  22.7642760  52.7756800
  36.9954270  30.5062040  49.6597160  37.1585310  30.0367400  48.8416530
  37.4606720  29.9985600  50.3246000  41.7673040  19.6367800  44.6957730
  41.3241190  20.4177340  44.3642250  42.3258030  19.9597690  45.4028670
  46.0542850  22.5036320  50.2993050  45.5922220  22.7119340  51.1112990
  45.6520960  21.6895670  49.9963720  51.0547360  23.7245270  51.4289710
  50.2040950  23.4251020  51.7498780  50.8949150  23.9687280  50.5173530
  48.1497070  25.2247020  53.5288500  48.4750480  24.3910770  53.1890730
  48.9377400  25.7475540  53.6766830  44.8831860  19.2578500  39.5763560
  44.2586040  19.2538370  40.3016870  44.7961980  18.3909460  39.1799530
  43.8048940  20.1815130  46.5547330  44.1021270  21.0877960  46.4739350
  44.3534500  19.6933910  45.9406900  41.5587260  24.7601370  42.4238980
  41.3328180  24.5438540  43.3285600  40.7779790  25.1929830  42.0784950
  48.7885020  24.7664740  41.0229630  48.1893910  25.4900540  40.8393250
  49.3364630  24.7041520  40.2406080  43.9986470  25.6586950  53.0899250
  43.9030070  24.7181680  52.9399650  44.8418450  25.8802020  52.6947320
  47.3949890  23.4028280  43.0532910  47.7879460  23.7200480  42.2401600
  47.7566740  22.5240160  43.1677430  39.1297010  22.0700620  51.2433030
  38.7360400  22.9175830  51.4505810  38.4415410  21.4326990  51.4341670
  45.7042060  22.1535590  54.3129770  45.0140380  21.9607790  54.9475860
  46.4474360  22.4370230  54.8454070  36.4314060  19.9929080  45.2763110
  36.1427110  20.5631940  45.9888090  37.1759820  19.5133530  45.6394340
  36.6184290  23.9349200  36.4865830  36.5358960  24.8779960  36.6280820
  36.2667350  23.7924110  35.6078180  47.9805030  25.9934030  47.1483690
  47.2486150  26.5020840  47.4973790  47.5829370  25.1764010  46.8472470
  44.4182420  22.6688230  45.5536180  44.4218480  22.2278180  44.7040720
  45.3133540  22.9905560  45.6608000  40.2684800  22.5514720  44.5130390
  39.9284850  23.0289950  45.2697440  39.5062120  22.0979840  44.1531490
  44.4802570  23.6700310  38.5442940  44.6015390  23.6286790  39.4928760
  44.0951080  24.5324460  38.3889670  48.4430940  21.4467710  46.5606630
  48.4603680  21.8976360  47.4048480  48.1946520  20.5473350  46.7740070
  43.4924070  25.9801450  37.9426240  42.9240970  25.5319700  37.3162150
  44.2013070  26.3394230  37.4091390  51.8701690  18.8599890  52.3993010
  52.1947460  18.1289550  52.9250990  51.9058200  18.5413530  51.4974000
  38.5693250  29.8813470  51.8192970  38.1848040  29.2407140  52.4175930
  38.8805440  30.5849590  52.3887700  44.7190390  26.7290010  47.3001590
  45.0860520  26.2548580  48.0462930  44.5295450  27.6031580  47.6409930
  37.5830880  21.4733700  43.4295060  37.2977800  21.1089370  44.2673680
  37.5209740  20.7414160  42.8158200  42.5089760  25.7698650  49.6185800
  42.2046830  26.6490630  49.8436160  43.4636220  25.8298440  49.6543240
  41.0371550  29.9759640  40.2152650  40.2633810  29.4357260  40.0551370
  41.7666180  29.4566250  39.8770410  51.7959530  28.9725000  46.0079040
  52.5158650  29.4680290  45.6175150  51.5941350  28.2942890  45.3632910
  47.2569470  20.3662960  40.1508430  46.4434080  19.8676130  40.0753740
  47.0631420  21.2061210  39.7344780  47.1778330  29.0434060  51.8948040
  47.1115640  28.1229730  51.6405630  46.5483470  29.1409500  52.6092680
  49.9717860  24.7382610  38.4470590  50.8597480  25.0499840  38.2721930
  49.9422950  23.8654860  38.0551170  41.0808950  29.6440020  43.8531460
  41.5987620  28.8408280  43.7988350  40.6292970  29.5819160  44.6948290
  45.9678450  30.9106300  39.1258760  46.3094150  31.6548530  38.6302080
  45.1391160  31.2237420  39.4883590  38.5653490  26.6101390  50.7657160
  38.2068430  27.2755240  51.3530500  38.2708050  25.7784940  51.1369780
  41.7666610  27.0685630  53.6496710  41.4666750  27.2142810  52.7524530
  42.5377850  26.5090920  53.5570100  47.1095060  31.8654630  51.6451840
  47.1239600  30.9335590  51.4270750  46.4020160  31.9514390  52.2841610
  52.2432130  26.0494450  37.9150450  52.1595850  26.4808670  37.0646890
  52.9626320  26.5092800  38.3477270  53.3206270  28.5061970  50.9920420
  52.5954460  29.0990750  50.7949810  53.8481730  28.4985510  50.1933790
  53.2719380  32.9036710  40.6432580  52.6295540  32.2492330  40.9176300
  52.8850040  33.3091800  39.8673250  48.8505860  30.2322140  44.4904270
  49.2029680  29.6350270  43.8305640  47.9668190  29.9066370  44.6612520
  44.9369140  30.9919830  41.8974680  45.6240270  31.5389040  42.2782270
  44.1501560  31.5360560  41.9324290  37.0761540  26.6092650  37.3891760
  37.9456390  26.8917450  37.6727680  36.5851860  27.4228520  37.2740570
  44.2396350  27.9965860  41.5100040  44.6959130  28.8071110  41.7360230
  43.8884560  27.6789000  42.3418530  46.5428960  33.5072200  48.7392340
  47.1871180  33.7131580  49.4165760  46.9058400  32.7460600  48.2863190
  40.1408130  18.3403510  41.9822560  40.0122760  18.3321410  42.9307480
  39.3170150  18.6786600  41.6313570  47.8161040  31.5104550  47.4569790
  48.4583270  30.8097710  47.5701960  48.3410390  32.2902990  47.2766680
  51.6616760  31.7953170  37.1808930  51.4354340  31.0783610  37.7733570
  51.2712960  31.5465610  36.3430680  49.5898660  32.3099450  50.6605850
  49.9254900  32.8966140  51.3383770  48.6699000  32.1792160  50.8903640
  37.1402060  20.0994630  51.4429260  36.4260580  20.2991550  52.0481870
  37.5597100  19.3234200  51.8144060  51.2433010  29.7125110  38.8423090
  50.9554710  30.1737800  39.6300970  52.0385180  29.2522880  39.1107310
  37.4274650  34.0874890  52.4295790  37.5365770  33.1469630  52.2891180
  36.7755210  34.3529640  51.7809520  45.4187240  32.3590780  53.8293910
  45.0984110  31.6400020  54.3739600  44.7445600  33.0345850  53.9029970
  43.4601410  33.2051230  38.7727060  43.4511510  33.9380920  38.1571570
  42.5399770  32.9582810  38.8654020  39.0608050  28.4266120  39.5173820
  38.4536000  29.1665020  39.5269120  39.5357400  28.5165480  38.6912020
  48.6340840  22.5916940  49.1930710  49.0021660  21.7712150  49.5210280
  47.7739040  22.6518830  49.6086360  52.0002870  21.5473880  40.0018270
  51.3716030  21.6519550  39.2876500  51.5054790  21.7670660  40.7912150
  46.4461010  33.2679470  37.4352250  46.5472990  33.0643460  36.5054230
  45.5462750  33.0137750  37.6400030  43.9686900  23.8259830  41.4176150
  43.2603050  24.2946170  41.8589760  44.2531380  23.1681840  42.0521340
  45.5942830  25.2456530  49.4168680  46.0928080  25.7202350  50.0820530
  45.7365780  24.3220050  49.6238710  48.0002330  20.5510490  42.8571940
  47.8770110  20.5696620  41.9081450  48.9486890  20.5989430  42.9770340
  45.0879120  35.7865790  42.1299920  45.3420620  35.7487180  41.2079290
  44.1391600  35.6599120  42.1228170  42.1721920  22.1344910  38.7926860
  43.0212450  22.5715060  38.7267050  41.8053190  22.4465170  39.6198920
  52.8009690  21.4624490  50.2597070  52.2983290  22.2029890  50.5990880
  53.6166350  21.8508490  49.9433860  51.0931700  26.7057670  43.7058430
  50.1521840  26.7207900  43.8806120  51.4075770  25.9193630  44.1518730
  41.0713340  28.3877270  37.2662390  41.8376610  28.2758630  37.8287820
  41.1488030  27.6915240  36.6139160  39.7660100  25.8202340  37.9495280
  39.8463690  24.8729850  38.0612680  40.6579850  26.1509220  38.0555940
  53.0957280  33.8766520  45.3812690  53.2204700  34.6997690  45.8536500
  53.9622840  33.6657250  45.0336840  40.5674810  35.9697730  45.0529820
  41.3037290  35.4213190  45.3238390  40.9515730  36.8353740  44.9135810
  37.4520290  32.0371300  40.9271330  36.5260070  32.2792440  40.9176740
  37.9176720  32.8645560  40.8056080  39.5733090  35.1543800  54.2415400
  40.3745820  35.4755850  54.6550800  39.0584910  34.7939380  54.9635310
  43.6777120  35.1428040  36.8755390  44.4705730  35.4316870  36.4237180
  43.1581470  34.7120210  36.1967870  48.4097720  31.2623670  54.1890810
  47.8035880  31.2855270  53.4486560  48.1051830  30.5306710  54.7258060
  49.8398090  34.9903960  52.8000220  50.7919840  34.9061980  52.7500460
  49.6926310  35.6545670  53.4734010  52.7307290  34.3698170  38.2992130
  52.4448800  33.9563310  37.4846310  52.5326840  35.2985880  38.1792650
  37.2930900  27.6417260  53.1851450  37.7969920  27.0624540  53.7567680
  36.5538320  27.9257490  53.7227820  44.1954520  30.3631450  36.7397740
  44.0905160  29.7483800  37.4659120  44.0278740  29.8397340  35.9560750
  44.3468840  29.0488250  52.7186970  43.5814510  29.6173250  52.6341640
  44.5284800  28.7564460  51.8255200  47.4357250  29.4251480  37.3439730
  46.8867350  29.8720780  37.9882470  48.0576510  28.9200730  37.8677400
  51.4892190  30.7793580  53.2761990  52.2301660  31.1169340  52.7729450
  50.7264870  30.9485640  52.7231760  39.3253980  25.7846850  54.0801520
  39.3659320  25.4860720  54.9886750  40.1799480  26.1854460  53.9209040
  43.1032370  28.3842400  39.2405030  43.5248790  28.2182270  40.0836420
  43.2283210  27.5742630  38.7460170  41.2659790  24.3638950  52.0476010
  40.7356250  23.8729900  51.4199350  41.9347860  24.7923150  51.5133940
  45.6160010  27.4080010  36.4882130  46.1365670  26.6929030  36.1223280
  46.2628410  28.0465880  36.7882640  50.1637850  28.8308410  51.8117200
  50.5778870  28.9853490  52.6607620  49.2288850  28.9563630  51.9742980
  50.6360020  26.1704570  53.8156350  51.2180790  25.4156890  53.7276830
  50.8121790  26.7012010  53.0387830  41.7532090  21.3301320  52.1273300
  41.6588960  20.7122070  51.4024170  41.1729480  22.0567610  51.9003210
  44.5193530  19.8874560  49.1600690  44.0710830  19.9098820  48.3146240
  43.8858730  19.4893580  49.7570990  44.9253080  28.7828890  49.7813130
  45.3441190  29.6261620  49.6089370  44.0061710  28.9200930  49.5519910
  47.2616980  26.5145070  51.1650970  47.3813190  25.9186210  51.9045810
  48.1210980  26.5514760  50.7452270  49.6004880  27.0682260  49.7413480
  49.0740100  27.5924880  49.1378620  49.9436220  27.7009650  50.3723210
  41.9991270  24.4575630  36.1863190  41.7980330  23.5942990  36.5476530
  41.8283320  24.3708990  35.2484790  42.7760500  35.0881900  50.8970860
  42.2381590  35.8127960  50.5779560  43.0294460  34.6112240  50.1068200
  44.0285750  23.0566420  52.4226790  44.6185440  22.7482270  53.1104610
  43.2105990  22.5846170  52.5786690  48.8479180  22.6732230  52.6559810
  48.1594700  22.0113770  52.5909800  49.5685200  22.2270500  53.1008270
  49.4779580  19.2683860  38.7150070  49.7581870  18.4251760  39.0709490
  48.7045310  19.5006970  39.2288820  40.7974070  21.5576250  36.1741070
  41.0999970  21.5643680  35.2660220  41.5368660  21.2074110  36.6708730
  45.6322710  36.3233110  51.1557510  45.5581410  37.2268250  51.4629880
  44.7301550  36.0045010  51.1279580  44.0159000  20.5010870  37.1597270
  43.6681000  19.8234860  36.5799720  44.2171770  20.0400380  37.9740660
  46.1808040  35.4891620  38.7783870  47.0758830  35.8276590  38.8002630
  46.2125670  34.7671030  38.1508150  39.8204200  30.8618670  37.0070870
  40.2579070  31.4048340  37.6628450  40.3051930  30.0365620  37.0167210
  37.0350000  33.6507700  44.4591130  37.3653010  32.7828760  44.2269770
  37.4641000  33.8566220  45.2896090  41.6311920  31.9816710  42.1193100
  41.3307460  31.8581680  43.0197010  41.5249410  31.1225300  41.7108830
  37.5240210  34.5178290  47.1972760  37.0871200  34.6979090  48.0296910
  38.0917890  35.2752910  47.0554480  53.1602390  34.0195290  51.4850070
  52.5604380  34.0787850  50.7413990  53.2896290  33.0800270  51.6146920
  54.4003840  31.7613110  36.8219780  53.5696800  31.8289760  37.2927010
  54.5775670  32.6517230  36.5186640  53.8560300  28.5060590  39.3253980
  54.6179210  29.0757240  39.4313670  53.8714670  27.9387790  40.0962290
  37.3564640  27.0298520  43.5561640  36.7013480  26.7610160  42.9121340
  38.1942590  26.9203000  43.1063620  54.8620270  29.3610690  44.1695910
  55.2329100  28.5778010  43.7631880  55.5022200  30.0499790  43.9913210
  51.8454030  30.7447270  49.5826230  51.0313870  31.1744430  49.8452020
  52.2528230  31.3565680  48.9695280  53.9079470  28.7994960  36.4826500
  54.1828310  29.7073840  36.3545720  53.7190210  28.7357490  37.4188490
  50.3055080  21.8239810  37.7780130  50.7239960  21.6370790  36.9376790
  49.9991140  20.9718860  38.0883060  53.8044810  26.7363950  41.4755930
  53.4288410  25.9691880  41.0437220  53.0747930  27.1186650  41.9630860
  38.3940570  27.4151090  48.0964980  38.7613610  27.3278490  48.9761000
  37.8251390  26.6517640  47.9971840  53.1944430  25.8835470  51.1095450
  52.9630520  25.6548220  50.2093400  53.4548980  26.8035020  51.0640340
  37.9456570  24.3260180  52.0023400  37.0512620  24.2926940  52.3417110
  38.4854120  24.5246970  52.7674650  51.6332500  21.1091900  53.8875150
  52.5102680  21.1175300  54.2709150  51.6453340  20.3722740  53.2767500
  36.5702720  24.2397450  39.4986970  35.6666800  24.5027650  39.3238630
  37.0543340  24.5108620  38.7186930  53.0795770  24.9621440  44.7763170
  53.6033250  24.4684090  44.1453340  53.6655190  25.0971800  45.5210740
  53.2585490  25.0461310  48.2982720  52.3088200  25.0124850  48.4127710
  53.4398500  25.9561420  48.0632490  39.1129930  23.2962990  37.4081350
  39.8221630  22.8746210  36.9228630  38.3969870  23.3638220  36.7764700
  38.7604090  19.3502320  36.4484000  39.4832220  19.8911260  36.7665220
  39.0328610  19.0765740  35.5725540  52.5695740  24.2194790  40.7155580
  53.0654860  23.9865660  41.5004460  52.3711810  23.3806630  40.2993220
  38.4496280  18.6008510  46.3506620  39.0972470  18.0505890  45.9101780
  38.8698120  18.8551660  47.1722430  53.9982900  22.8555740  43.2493260
  53.8882180  22.7011780  44.1875530  54.7590490  22.3276680  43.0068670
  52.3448620  18.7949870  49.7076260  52.9820840  19.4084010  50.0735450
  52.4923510  18.8310530  48.7625490  54.8873170  20.6863660  36.4899400
  55.8122480  20.5544840  36.2817690  54.8648960  20.7656480  37.4435850
  54.9611660  21.4574320  39.1156110  54.1663160  21.3919440  39.6449020
  55.1654940  22.3924960  39.1041460  51.9030080  35.4965870  43.1094500
  52.4989150  35.1750440  42.4328920  52.1608230  35.0237690  43.9007770
  38.2028280  18.7564180  49.0931940  37.8543100  19.2128000  49.8590120
  37.8715980  17.8621310  49.1754370  39.8092650  31.9283780  53.2585130
  39.7662280  31.5576690  54.1399590  39.9403660  32.8661350  53.3986950
  43.5098680  33.4843370  48.8594850  43.2690040  33.7517930  47.9725370
  44.4501320  33.6549100  48.9145710  45.7153100  19.9476060  52.6151360
  45.6541990  20.5397890  53.3646770  46.6553480  19.8402020  52.4701620
  48.3527660  19.6046120  52.2543650  48.9668070  19.9225410  51.5924730
  48.8977220  19.1194710  52.8739510  54.7702840  35.5037750  49.6605490
  54.2761120  35.9006620  48.9432620  54.1616130  34.8786960  50.0542770
  38.8748920  18.2840380  52.3682710  39.4231910  18.1028430  51.6048820
  38.9404230  17.4934490  52.9039020  39.6480680  34.8746030  50.3782910
  39.0541000  34.7430730  51.1172950  39.6404520  34.0384170  49.9125010
  49.0935700  18.1678260  48.5812940  48.2195540  18.5013370  48.3785870
  48.9846450  17.6951440  49.4064810  50.0007680  20.3749130  49.9654660
  49.6721040  19.5600890  49.5856390  50.9489980  20.3318940  49.8420350
  52.4542290  36.1461170  46.9392230  51.9945260  36.8976980  46.5650250
  51.8254750  35.4267640  46.8807030  39.2792910  32.2404410  49.3290950
  38.5526970  31.6209700  49.2616900  39.3402060  32.6345020  48.4589030
  42.8838010  34.4549410  46.1140360  43.4003030  33.8436770  45.5888620
  43.5335390  34.9578190  46.6051370  45.6233510  35.3457900  46.9409340
  45.9111320  35.0912200  46.0642350  46.1356730  34.7935260  47.5314910
  46.8410520  19.0848100  47.5205850  46.0582310  19.5593600  47.8002610
  46.5473450  18.1802930  47.4119030  51.3931590  19.7871200  45.5654940
  51.8339680  19.7316300  44.7176540  51.1239180  20.7029210  45.6365120
  53.2570160  19.4186440  43.5763760  53.1958560  18.4747660  43.4294780
  54.0362190  19.5266530  44.1217220  37.5622910  35.5578800  42.5387710
  37.3944950  34.9249480  43.2369600  36.6957420  35.7638200  42.1881900
  38.1850930  19.3895580  40.0419570  38.9430290  19.5024460  39.4683600
  37.7228100  20.2264780  39.9963000  44.7264740  21.5034850  43.0321880
  43.9139250  21.1291740  42.6917760  45.2306380  20.7479930  43.3343070
  49.2289720  18.1677300  44.2704950  49.8319090  18.7397510  44.7453470
  48.4882710  18.7316740  44.0478850  52.3724320  18.5698860  39.5445230
  52.5674950  19.4682310  39.8112660  51.5854190  18.3385940  40.0378180
  40.5576080  19.9159630  38.5821540  41.0868840  19.1289430  38.4529490
  41.1904400  20.5950820  38.8157070  42.7513920  19.6534770  41.6366930
  42.1216660  18.9522080  41.8037060  42.2119060  20.4138900  41.4200090
  45.6905870  36.2674000  54.3077540  46.6173180  36.0318270  54.3513500
  45.6756300  37.0946000  53.8263570  53.9250930  35.8099570  41.3051790
  54.1003120  35.1237310  40.6612710  53.2272500  36.3346620  40.9128460
  42.8769480  18.9318750  54.0719420  42.5953750  19.4352350  53.3080240
  43.2589180  18.1340500  53.7061550  41.7678580  36.1994410  38.8587100
  42.4997400  35.9153690  38.3110990  42.0272250  35.9607690  39.7486480
  40.9293370  32.3159140  38.8633430  40.3002250  32.7844240  39.4119260
  41.0441200  31.4708360  39.2979620  49.4784940  18.3472330  54.6499890
  49.3650390  18.6666940  55.5451410  50.2954680  18.7484840  54.3537170
  52.2583430  35.4943860  54.1318580  53.0508750  34.9993090  53.9244540
  52.5516580  36.1734000  54.7394190  48.3843090  26.3664800  25.0134630
  48.3037140  25.4519410  24.7426340  47.9707510  26.8631870  24.3074340
  46.5161130  28.1443820  26.8943900  45.7403230  27.6644260  27.1842470
  47.1674060  27.4649470  26.7200060  40.5326960  28.4563630  27.7719660
  39.7011840  28.2012340  28.1716170  41.1407940  28.5274400  28.5077580
  50.5368560  32.5504010  25.6743030  50.0750090  31.7791250  26.0030200
  51.3494110  32.5770080  26.1795480  40.5128220  32.4903720  27.9677680
  40.8156260  31.6001460  27.7887900  41.2571810  33.0473940  27.7399930
  38.9418910  23.4165520  21.5562050  38.0535610  23.7581490  21.4541930
  39.2260100  23.2165840  20.6642880  36.9051920  26.0171170  27.4401750
  37.4768030  25.2493370  27.4405390  36.9053460  26.3159930  26.5308360
  46.7631870  34.8362020  25.2947020  46.1443310  35.2919520  24.7241460
  47.6183650  34.9913480  24.8936720  45.9570120  30.8201010  26.9014060
  45.8878400  29.8790950  26.7403190  46.7189980  30.9102420  27.4736630
  38.1476790  21.4255530  29.2270680  37.9679630  20.5281280  29.5073440
  37.7456870  21.9727400  29.9017630  46.9875290  23.6271390  27.1282990
  47.3640110  22.7543270  27.0156660  46.8894800  23.9630090  26.2373430
  41.1180300  21.9997020  22.5900430  41.2247050  22.9000750  22.8969190
  40.2072660  21.9514990  22.2995080  50.7699410  21.1221830  24.0611330
  51.5909030  20.6318400  24.1036810  50.8033490  21.7119490  24.8143170
  38.7663460  23.9216030  27.8353020  39.4473570  24.1854400  28.4540420
  38.4511510  23.0816900  28.1691030  42.9588030  24.9683390  26.9225610
  43.4666250  25.4664360  27.5630630  43.4901270  24.1918590  26.7464970
  55.0598960  23.1388580  30.6254960  54.3551130  23.5270290  30.1070070
  55.3256880  23.8338870  31.2275890  41.2424130  19.6081950  31.1889030
  41.2442570  20.1254340  30.3834930  40.4128440  19.1312130  31.1658960
  47.6295220  29.7201260  22.6878930  47.0112490  30.1850710  22.1241650
  48.1418470  30.4128740  23.1048440  42.4926980  29.2477130  29.3662530
  42.1596360  29.8746050  30.0083600  42.6693660  29.7739010  28.5864200
  51.0060890  23.0622210  26.8338870  50.3016460  23.3507100  27.4141980
  51.3673050  23.8722320  26.4738430  40.9239460  21.3191910  29.1959480
  41.2656270  22.1633960  28.9013350  39.9855270  21.4675650  29.3124820
  41.7046080  31.2157930  31.1811710  42.3220080  31.8909010  30.8996160
  40.8439200  31.6245910  31.0899210  36.9978420  30.4057790  20.0618560
  36.6206400  30.8944890  19.3303460  37.2551490  31.0783070  20.6925090
  52.6223670  32.6797340  29.0966350  51.9387190  33.3496450  29.0883020
  53.1617960  32.8777990  28.3311210  54.0747810  22.5077000  27.2248080
  53.1272720  22.5415980  27.3563510  54.3997800  23.3215950  27.6097440
  44.6067350  18.8074180  25.5204070  44.9142330  18.2521070  24.8039570
  43.6768050  18.9418640  25.3377060  50.1582410  34.5241470  27.8111530
  50.1709570  34.1203760  26.9433790  49.6057630  35.2988760  27.7072960
  51.4527830  31.2457690  22.9001700  51.3424160  30.3032020  23.0251120
  51.4496080  31.6073330  23.7864460  49.5567850  29.4271310  29.1394140
  49.9736640  29.2131420  28.3047600  50.2807670  29.6844100  29.7102760
  46.9948110  26.8723010  22.2564190  46.0677390  26.8060390  22.4852660
  47.1472930  27.8103140  22.1419430  46.9817190  23.1440010  19.2531350
  46.0420860  23.3053970  19.3383810  47.3000450  23.8625690  18.7067340
  53.5029950  27.8258530  29.2310380  52.6748580  27.8951620  28.7560510
  54.0980430  28.4112840  28.7626210  51.0245400  28.4343310  22.7599440
  50.4057820  28.0962860  22.1125740  51.0069850  27.7903070  23.4678630
  50.4671960  24.6127850  30.1765250  50.0543140  25.4381560  30.4305240
  49.7347910  24.0272890  29.9841610  42.6004750  27.3987750  25.0383920
  42.1961750  26.6865000  24.5429820  42.6867870  27.0540990  25.9271960
  43.0686450  31.0855310  27.2023130  42.7714740  30.4800780  26.5230910
  44.0186270  31.1232620  27.0912490  41.3133370  24.1730960  28.8182960
  41.8647960  24.2826300  28.0436210  41.8276880  24.5468560  29.5338190
  51.1572060  34.6587180  30.8646230  50.6802620  35.4659370  30.6718840
  50.4733850  34.0065510  31.0172440  42.1604880  30.8237000  33.8530930
  41.2633410  31.0476970  34.1004330  42.1857750  30.9471940  32.9042330
  49.2010100  27.6730120  19.7672190  49.6403380  26.8352550  19.6210010
  49.9138520  28.3059520  19.8536330  40.9876100  27.6950320  32.4288300
  40.8483870  28.5673120  32.7975700  40.1057460  27.3523130  32.2836240
  47.3105480  32.6126190  23.7353430  47.7501390  33.3550520  23.3208820
  47.2492370  32.8552760  24.6592390  42.7856450  33.6372020  34.6373450
  42.7571880  34.0414970  33.7701880  42.6221420  32.7082380  34.4745050
  52.7827240  18.9272930  18.0813230  52.4699900  19.0199760  18.9812300
  53.5439710  19.5053960  18.0310660  39.3009380  26.2932730  22.5390570
  39.1806980  27.0194820  21.9271840  38.9910270  25.5235640  22.0618480
  54.7371270  34.4199120  35.9337620  55.2130990  34.8982010  36.6126700
  55.3578430  34.3516610  35.2083120  36.9394750  29.4647870  28.3459210
  37.0175170  29.5996640  27.4014930  37.5536430  28.7563760  28.5387330
  38.1842380  31.1648060  24.7565390  37.7770460  31.3062650  23.9018990
  39.0755390  30.8808220  24.5536600  54.1404520  31.6111970  33.0937630
  54.2667580  31.3723850  32.1754810  54.1825900  30.7796510  33.5659710
  48.0021260  35.3139970  31.6632440  48.5165930  35.2247980  32.4654870
  47.1590340  35.6599670  31.9560350  49.9775660  35.5995310  21.0916440
  49.8176800  35.3098250  21.9898270  49.8122370  34.8235440  20.5561670
  42.4564040  35.3793840  22.8688060  42.2806520  34.4629380  22.6555860
  41.6019780  35.7381130  23.1085860  49.6801790  33.1082870  19.6514440
  48.9866950  33.1060160  18.9916720  50.4224650  32.6842190  19.2208610
  49.2451720  34.7345580  23.7262930  49.7008670  33.9534960  24.0401550
  49.5844240  35.4452400  24.2704110  53.9928530  23.6644430  34.0587370
  53.3772800  24.1724100  33.5302830  53.6724950  22.7642760  34.0013310
  36.9954270  30.5062040  30.8853670  37.1585310  30.0367400  30.0673040
  37.4606720  29.9985600  31.5502510  41.7673040  19.6367800  25.9214240
  41.3241190  20.4177340  25.5898760  42.3258030  19.9597690  26.6285180
  46.0542850  22.5036320  31.5249560  45.5922220  22.7119340  32.3369500
  45.6520960  21.6895670  31.2220230  51.0547360  23.7245270  32.6546220
  50.2040950  23.4251020  32.9755290  50.8949150  23.9687280  31.7430040
  48.1497070  25.2247020  34.7545010  48.4750480  24.3910770  34.4147240
  48.9377400  25.7475540  34.9023340  44.8831860  19.2578500  20.8020070
  44.2586040  19.2538370  21.5273380  44.7961980  18.3909460  20.4056040
  43.8048940  20.1815130  27.7803840  44.1021270  21.0877960  27.6995860
  44.3534500  19.6933910  27.1663410  41.5587260  24.7601370  23.6495490
  41.3328180  24.5438540  24.5542110  40.7779790  25.1929830  23.3041460
  48.7885020  24.7664740  22.2486140  48.1893910  25.4900540  22.0649760
  49.3364630  24.7041520  21.4662590  43.9986470  25.6586950  34.3155760
  43.9030070  24.7181680  34.1656160  44.8418450  25.8802020  33.9203830
  47.3949890  23.4028280  24.2789420  47.7879460  23.7200480  23.4658110
  47.7566740  22.5240160  24.3933940  39.1297010  22.0700620  32.4689540
  38.7360400  22.9175830  32.6762320  38.4415410  21.4326990  32.6598180
  45.7042060  22.1535590  35.5386280  45.0140380  21.9607790  36.1732370
  46.4474360  22.4370230  36.0710580  36.4314060  19.9929080  26.5019620
  36.1427110  20.5631940  27.2144600  37.1759820  19.5133530  26.8650850
  36.6184290  23.9349200  17.7122340  36.5358960  24.8779960  17.8537330
  36.2667350  23.7924110  16.8334690  47.9805030  25.9934030  28.3740200
  47.2486150  26.5020840  28.7230300  47.5829370  25.1764010  28.0728980
  44.4182420  22.6688230  26.7792690  44.4218480  22.2278180  25.9297230
  45.3133540  22.9905560  26.8864510  40.2684800  22.5514720  25.7386900
  39.9284850  23.0289950  26.4953950  39.5062120  22.0979840  25.3788000
  44.4802570  23.6700310  19.7699450  44.6015390  23.6286790  20.7185270
  44.0951080  24.5324460  19.6146180  48.4430940  21.4467710  27.7863140
  48.4603680  21.8976360  28.6304990  48.1946520  20.5473350  27.9996580
  43.4924070  25.9801450  19.1682750  42.9240970  25.5319700  18.5418660
  44.2013070  26.3394230  18.6347900  51.8701690  18.8599890  33.6249520
  52.1947460  18.1289550  34.1507500  51.9058200  18.5413530  32.7230510
  38.5693250  29.8813470  33.0449480  38.1848040  29.2407140  33.6432440
  38.8805440  30.5849590  33.6144210  44.7190390  26.7290010  28.5258100
  45.0860520  26.2548580  29.2719440  44.5295450  27.6031580  28.8666440
  37.5830880  21.4733700  24.6551570  37.2977800  21.1089370  25.4930190
  37.5209740  20.7414160  24.0414710  42.5089760  25.7698650  30.8442310
  42.2046830  26.6490630  31.0692670  43.4636220  25.8298440  30.8799750
  41.0371550  29.9759640  21.4409160  40.2633810  29.4357260  21.2807880
  41.7666180  29.4566250  21.1026920  51.7959530  28.9725000  27.2335550
  52.5158650  29.4680290  26.8431660  51.5941350  28.2942890  26.5889420
  47.2569470  20.3662960  21.3764940  46.4434080  19.8676130  21.3010250
  47.0631420  21.2061210  20.9601290  47.1778330  29.0434060  33.1204550
  47.1115640  28.1229730  32.8662140  46.5483470  29.1409500  33.8349190
  49.9717860  24.7382610  19.6727100  50.8597480  25.0499840  19.4978440
  49.9422950  23.8654860  19.2807680  41.0808950  29.6440020  25.0787970
  41.5987620  28.8408280  25.0244860  40.6292970  29.5819160  25.9204800
  45.9678450  30.9106300  20.3515270  46.3094150  31.6548530  19.8558590
  45.1391160  31.2237420  20.7140100  38.5653490  26.6101390  31.9913670
  38.2068430  27.2755240  32.5787010  38.2708050  25.7784940  32.3626290
  41.7666610  27.0685630  34.8753220  41.4666750  27.2142810  33.9781040
  42.5377850  26.5090920  34.7826610  47.1095060  31.8654630  32.8708350
  47.1239600  30.9335590  32.6527260  46.4020160  31.9514390  33.5098120
  52.2432130  26.0494450  19.1406960  52.1595850  26.4808670  18.2903400
  52.9626320  26.5092800  19.5733780  53.3206270  28.5061970  32.2176930
  52.5954460  29.0990750  32.0206320  53.8481730  28.4985510  31.4190300
  53.2719380  32.9036710  21.8689090  52.6295540  32.2492330  22.1432810
  52.8850040  33.3091800  21.0929760  48.8505860  30.2322140  25.7160780
  49.2029680  29.6350270  25.0562150  47.9668190  29.9066370  25.8869030
  44.9369140  30.9919830  23.1231190  45.6240270  31.5389040  23.5038780
  44.1501560  31.5360560  23.1580800  37.0761540  26.6092650  18.6148270
  37.9456390  26.8917450  18.8984190  36.5851860  27.4228520  18.4997080
  44.2396350  27.9965860  22.7356550  44.6959130  28.8071110  22.9616740
  43.8884560  27.6789000  23.5675040  46.5428960  33.5072200  29.9648850
  47.1871180  33.7131580  30.6422270  46.9058400  32.7460600  29.5119700
  40.1408130  18.3403510  23.2079070  40.0122760  18.3321410  24.1563990
  39.3170150  18.6786600  22.8570080  47.8161040  31.5104550  28.6826300
  48.4583270  30.8097710  28.7958470  48.3410390  32.2902990  28.5023190
  51.6616760  31.7953170  18.4065440  51.4354340  31.0783610  18.9990080
  51.2712960  31.5465610  17.5687190  49.5898660  32.3099450  31.8862360
  49.9254900  32.8966140  32.5640280  48.6699000  32.1792160  32.1160150
  37.4432790  35.8220030  19.1809900  37.8030430  36.4209370  18.5267170
  37.3025130  36.3679920  19.9544930  37.1402060  20.0994630  32.6685770
  36.4260580  20.2991550  33.2738380  37.5597100  19.3234200  33.0400570
  51.2433010  29.7125110  20.0679600  50.9554710  30.1737800  20.8557480
  52.0385180  29.2522880  20.3363820  45.4187240  32.3590780  35.0550420
  45.0984110  31.6400020  35.5996110  44.7445600  33.0345850  35.1286480
  43.4601410  33.2051230  19.9983570  43.4511510  33.9380920  19.3828080
  42.5399770  32.9582810  20.0910530  39.0608050  28.4266120  20.7430330
  38.4536000  29.1665020  20.7525630  39.5357400  28.5165480  19.9168530
  48.6340840  22.5916940  30.4187220  49.0021660  21.7712150  30.7466790
  47.7739040  22.6518830  30.8342870  52.0002870  21.5473880  21.2274780
  51.3716030  21.6519550  20.5133010  51.5054790  21.7670660  22.0168660
  46.4461010  33.2679470  18.6608760  46.5472990  33.0643460  17.7310740
  45.5462750  33.0137750  18.8656540  43.9686900  23.8259830  22.6432660
  43.2603050  24.2946170  23.0846270  44.2531380  23.1681840  23.2777850
  45.5942830  25.2456530  30.6425190  46.0928080  25.7202350  31.3077040
  45.7365780  24.3220050  30.8495220  48.0002330  20.5510490  24.0828450
  47.8770110  20.5696620  23.1337960  48.9486890  20.5989430  24.2026850
  45.0879120  35.7865790  23.3556430  45.3420620  35.7487180  22.4335800
  44.1391600  35.6599120  23.3484680  42.1721920  22.1344910  20.0183370
  43.0212450  22.5715060  19.9523560  41.8053190  22.4465170  20.8455430
  52.8009690  21.4624490  31.4853580  52.2983290  22.2029890  31.8247390
  53.6166350  21.8508490  31.1690370  51.0931700  26.7057670  24.9314940
  50.1521840  26.7207900  25.1062630  51.4075770  25.9193630  25.3775240
  41.0713340  28.3877270  18.4918900  41.8376610  28.2758630  19.0544330
  41.1488030  27.6915240  17.8395670  39.7660100  25.8202340  19.1751790
  39.8463690  24.8729850  19.2869190  40.6579850  26.1509220  19.2812450
  53.0957280  33.8766520  26.6069200  53.2204700  34.6997690  27.0793010
  53.9622840  33.6657250  26.2593350  40.5674810  35.9697730  26.2786330
  41.3037290  35.4213190  26.5494900  40.9515730  36.8353740  26.1392320
  37.4520290  32.0371300  22.1527840  36.5260070  32.2792440  22.1433250
  37.9176720  32.8645560  22.0312590  43.6777120  35.1428040  18.1011900
  44.4705730  35.4316870  17.6493690  43.1581470  34.7120210  17.4224380
  48.4097720  31.2623670  35.4147320  47.8035880  31.2855270  34.6743070
  48.1051830  30.5306710  35.9514570  49.8398090  34.9903960  34.0256730
  50.7919840  34.9061980  33.9756970  49.6926310  35.6545670  34.6990520
  52.7307290  34.3698170  19.5248640  52.4448800  33.9563310  18.7102820
  52.5326840  35.2985880  19.4049160  37.2930900  27.6417260  34.4107960
  37.7969920  27.0624540  34.9824190  36.5538320  27.9257490  34.9484330
  44.1954520  30.3631450  17.9654250  44.0905160  29.7483800  18.6915630
  44.0278740  29.8397340  17.1817260  44.3468840  29.0488250  33.9443480
  43.5814510  29.6173250  33.8598150  44.5284800  28.7564460  33.0511710
  47.4357250  29.4251480  18.5696240  46.8867350  29.8720780  19.2138980
  48.0576510  28.9200730  19.0933910  51.4892190  30.7793580  34.5018500
  52.2301660  31.1169340  33.9985960  50.7264870  30.9485640  33.9488270
  39.3253980  25.7846850  35.3058030  39.3659320  25.4860720  36.2143260
  40.1799480  26.1854460  35.1465550  43.1032370  28.3842400  20.4661540
  43.5248790  28.2182270  21.3092930  43.2283210  27.5742630  19.9716680
  41.2659790  24.3638950  33.2732520  40.7356250  23.8729900  32.6455860
  41.9347860  24.7923150  32.7390450  45.6160010  27.4080010  17.7138640
  46.1365670  26.6929030  17.3479790  46.2628410  28.0465880  18.0139150
  50.1637850  28.8308410  33.0373710  50.5778870  28.9853490  33.8864130
  49.2288850  28.9563630  33.1999490  50.6360020  26.1704570  35.0412860
  51.2180790  25.4156890  34.9533340  50.8121790  26.7012010  34.2644340
  41.7532090  21.3301320  33.3529810  41.6588960  20.7122070  32.6280680
  41.1729480  22.0567610  33.1259720  44.5193530  19.8874560  30.3857200
  44.0710830  19.9098820  29.5402750  43.8858730  19.4893580  30.9827500
  44.9253080  28.7828890  31.0069640  45.3441190  29.6261620  30.8345880
  44.0061710  28.9200930  30.7776420  47.2616980  26.5145070  32.3907480
  47.3813190  25.9186210  33.1302320  48.1210980  26.5514760  31.9708780
  49.6004880  27.0682260  30.9669990  49.0740100  27.5924880  30.3635130
  49.9436220  27.7009650  31.5979720  41.9991270  24.4575630  17.4119700
  41.7980330  23.5942990  17.7733040  41.8283320  24.3708990  16.4741300
  42.7760500  35.0881900  32.1227370  42.2381590  35.8127960  31.8036070
  43.0294460  34.6112240  31.3324710  44.0285750  23.0566420  33.6483300
  44.6185440  22.7482270  34.3361120  43.2105990  22.5846170  33.8043200
  48.8479180  22.6732230  33.8816320  48.1594700  22.0113770  33.8166310
  49.5685200  22.2270500  34.3264780  49.4779580  19.2683860  19.9406580
  49.7581870  18.4251760  20.2966000  48.7045310  19.5006970  20.4545330
  40.7974070  21.5576250  17.3997580  41.0999970  21.5643680  16.4916730
  41.5368660  21.2074110  17.8965240  45.6322710  36.3233110  32.3814020
  45.5581410  37.2268250  32.6886390  44.7301550  36.0045010  32.3536090
  44.0159000  20.5010870  18.3853780  43.6681000  19.8234860  17.8056230
  44.2171770  20.0400380  19.1997170  46.1808040  35.4891620  20.0040380
  47.0758830  35.8276590  20.0259140  46.2125670  34.7671030  19.3764660
  39.8204200  30.8618670  18.2327380  40.2579070  31.4048340  18.8884960
  40.3051930  30.0365620  18.2423720  37.0350000  33.6507700  25.6847640
  37.3653010  32.7828760  25.4526280  37.4641000  33.8566220  26.5152600
  41.6311920  31.9816710  23.3449610  41.3307460  31.8581680  24.2453520
  41.5249410  31.1225300  22.9365340  37.5240210  34.5178290  28.4229270
  37.0871200  34.6979090  29.2553420  38.0917890  35.2752910  28.2810990
  53.1602390  34.0195290  32.7106580  52.5604380  34.0787850  31.9670500
  53.2896290  33.0800270  32.8403430  54.4003840  31.7613110  18.0476290
  53.5696800  31.8289760  18.5183520  54.5775670  32.6517230  17.7443150
  53.8560300  28.5060590  20.5510490  54.6179210  29.0757240  20.6570180
  53.8714670  27.9387790  21.3218800  37.3564640  27.0298520  24.7818150
  36.7013480  26.7610160  24.1377850  38.1942590  26.9203000  24.3320130
  54.8620270  29.3610690  25.3952420  55.2329100  28.5778010  24.9888390
  55.5022200  30.0499790  25.2169720  51.8454030  30.7447270  30.8082740
  51.0313870  31.1744430  31.0708530  52.2528230  31.3565680  30.1951790
  53.9079470  28.7994960  17.7083010  54.1828310  29.7073840  17.5802230
  53.7190210  28.7357490  18.6445000  50.3055080  21.8239810  19.0036640
  50.7239960  21.6370790  18.1633300  49.9991140  20.9718860  19.3139570
  53.8044810  26.7363950  22.7012440  53.4288410  25.9691880  22.2693730
  53.0747930  27.1186650  23.1887370  38.3940570  27.4151090  29.3221490
  38.7613610  27.3278490  30.2017510  37.8251390  26.6517640  29.2228350
  53.1944430  25.8835470  32.3351960  52.9630520  25.6548220  31.4349910
  53.4548980  26.8035020  32.2896850  37.9456570  24.3260180  33.2279910
  37.0512620  24.2926940  33.5673620  38.4854120  24.5246970  33.9931160
  51.6332500  21.1091900  35.1131660  52.5102680  21.1175300  35.4965660
  51.6453340  20.3722740  34.5024010  36.5702720  24.2397450  20.7243480
  35.6666800  24.5027650  20.5495140  37.0543340  24.5108620  19.9443440
  53.0795770  24.9621440  26.0019680  53.6033250  24.4684090  25.3709850
  53.6655190  25.0971800  26.7467250  53.2585490  25.0461310  29.5239230
  52.3088200  25.0124850  29.6384220  53.4398500  25.9561420  29.2889000
  39.1129930  23.2962990  18.6337860  39.8221630  22.8746210  18.1485140
  38.3969870  23.3638220  18.0021210  38.7604090  19.3502320  17.6740510
  39.4832220  19.8911260  17.9921730  39.0328610  19.0765740  16.7982050
  52.5695740  24.2194790  21.9412090  53.0654860  23.9865660  22.7260970
  52.3711810  23.3806630  21.5249730  38.4496280  18.6008510  27.5763130
  39.0972470  18.0505890  27.1358290  38.8698120  18.8551660  28.3978940
  53.9982900  22.8555740  24.4749770  53.8882180  22.7011780  25.4132040
  54.7590490  22.3276680  24.2325180  52.3448620  18.7949870  30.9332770
  52.9820840  19.4084010  31.2991960  52.4923510  18.8310530  29.9882000
  54.8873170  20.6863660  17.7155910  55.8122480  20.5544840  17.5074200
  54.8648960  20.7656480  18.6692360  54.9611660  21.4574320  20.3412620
  54.1663160  21.3919440  20.8705530  55.1654940  22.3924960  20.3297970
  51.9030080  35.4965870  24.3351010  52.4989150  35.1750440  23.6585430
  52.1608230  35.0237690  25.1264280  38.2028280  18.7564180  30.3188450
  37.8543100  19.2128000  31.0846630  37.8715980  17.8621310  30.4010880
  43.5098680  33.4843370  30.0851360  43.2690040  33.7517930  29.1981880
  44.4501320  33.6549100  30.1402220  45.7153100  19.9476060  33.8407870
  45.6541990  20.5397890  34.5903280  46.6553480  19.8402020  33.6958130
  48.3527660  19.6046120  33.4800160  48.9668070  19.9225410  32.8181240
  48.8977220  19.1194710  34.0996020  54.7702840  35.5037750  30.8862000
  54.2761120  35.9006620  30.1689130  54.1616130  34.8786960  31.2799280
  38.8748920  18.2840380  33.5939220  39.4231910  18.1028430  32.8305330
  38.9404230  17.4934490  34.1295530  39.6480680  34.8746030  31.6039420
  39.0541000  34.7430730  32.3429460  39.6404520  34.0384170  31.1381520
  49.0935700  18.1678260  29.8069450  48.2195540  18.5013370  29.6042380
  48.9846450  17.6951440  30.6321320  50.0007680  20.3749130  31.1911170
  49.6721040  19.5600890  30.8112900  50.9489980  20.3318940  31.0676860
  52.4542290  36.1461170  28.1648740  51.9945260  36.8976980  27.7906760
  51.8254750  35.4267640  28.1063540  39.2792910  32.2404410  30.5547460
  38.5526970  31.6209700  30.4873410  39.3402060  32.6345020  29.6845540
  42.8838010  34.4549410  27.3396870  43.4003030  33.8436770  26.8145130
  43.5335390  34.9578190  27.8307880  45.6233510  35.3457900  28.1665850
  45.9111320  35.0912200  27.2898860  46.1356730  34.7935260  28.7571420
  46.8410520  19.0848100  28.7462360  46.0582310  19.5593600  29.0259120
  46.5473450  18.1802930  28.6375540  51.3931590  19.7871200  26.7911450
  51.8339680  19.7316300  25.9433050  51.1239180  20.7029210  26.8621630
  53.2570160  19.4186440  24.8020270  53.1958560  18.4747660  24.6551290
  54.0362190  19.5266530  25.3473730  37.5622910  35.5578800  23.7644220
  37.3944950  34.9249480  24.4626110  36.6957420  35.7638200  23.4138410
  38.1850930  19.3895580  21.2676080  38.9430290  19.5024460  20.6940110
  37.7228100  20.2264780  21.2219510  44.7264740  21.5034850  24.2578390
  43.9139250  21.1291740  23.9174270  45.2306380  20.7479930  24.5599580
  49.2289720  18.1677300  25.4961460  49.8319090  18.7397510  25.9709980
  48.4882710  18.7316740  25.2735360  52.3724320  18.5698860  20.7701740
  52.5674950  19.4682310  21.0369170  51.5854190  18.3385940  21.2634690
  39.1685610  34.2512030  21.2094360  38.6433230  34.6320060  20.5056320
  39.0930190  34.8762800  21.9304070  40.5576080  19.9159630  19.8078050
  41.0868840  19.1289430  19.6786000  41.1904400  20.5950820  20.0413580
  42.7513920  19.6534770  22.8623440  42.1216660  18.9522080  23.0293570
  42.2119060  20.4138900  22.6456600  45.6905870  36.2674000  35.5334050
  46.6173180  36.0318270  35.5770010  45.6756300  37.0946000  35.0520080
  53.9250930  35.8099570  22.5308300  54.1003120  35.1237310  21.8869220
  53.2272500  36.3346620  22.1384970  42.8769480  18.9318750  35.2975930
  42.5953750  19.4352350  34.5336750  43.2589180  18.1340500  34.9318060
  41.7678580  36.1994410  20.0843610  42.4997400  35.9153690  19.5367500
  42.0272250  35.9607690  20.9742990  40.9293370  32.3159140  20.0889940
  40.3002250  32.7844240  20.6375770  41.0441200  31.4708360  20.5236130
  49.4784940  18.3472330  35.8756400  49.3650390  18.6666940  36.7707920
  50.2954680  18.7484840  35.5793680  52.2583430  35.4943860  35.3575090
  53.0508750  34.9993090  35.1501050  52.5516580  36.1734000  35.9650700
  48.3843090  26.3664800   6.2391140  48.3037140  25.4519410   5.9682850
  47.9707510  26.8631870   5.5330850  46.5161130  28.1443820   8.1200410
  45.7403230  27.6644260   8.4098980  47.1674060  27.4649470   7.9456570
  40.5326960  28.4563630   8.9976170  39.7011840  28.2012340   9.3972680
  41.1407940  28.5274400   9.7334090  50.5368560  32.5504010   6.8999540
  50.0750090  31.7791250   7.2286710  51.3494110  32.5770080   7.4051990
  40.5128220  32.4903720   9.1934190  40.8156260  31.6001460   9.0144410
  41.2571810  33.0473940   8.9656440  38.9418910  23.4165520   2.7818560
  38.0535610  23.7581490   2.6798440  39.2260100  23.2165840   1.8899390
  36.9051920  26.0171170   8.6658260  37.4768030  25.2493370   8.6661900
  36.9053460  26.3159930   7.7564870  46.7631870  34.8362020   6.5203530
  46.1443310  35.2919520   5.9497970  47.6183650  34.9913480   6.1193230
  45.9570120  30.8201010   8.1270570  45.8878400  29.8790950   7.9659700
  46.7189980  30.9102420   8.6993140  38.1476790  21.4255530  10.4527190
  37.9679630  20.5281280  10.7329950  37.7456870  21.9727400  11.1274140
  46.9875290  23.6271390   8.3539500  47.3640110  22.7543270   8.2413170
  46.8894800  23.9630090   7.4629940  41.1180300  21.9997020   3.8156940
  41.2247050  22.9000750   4.1225700  40.2072660  21.9514990   3.5251590
  50.7699410  21.1221830   5.2867840  51.5909030  20.6318400   5.3293320
  50.8033490  21.7119490   6.0399680  38.7663460  23.9216030   9.0609530
  39.4473570  24.1854400   9.6796930  38.4511510  23.0816900   9.3947540
  42.9588030  24.9683390   8.1482120  43.4666250  25.4664360   8.7887140
  43.4901270  24.1918590   7.9721480  55.0598960  23.1388580  11.8511470
  54.3551130  23.5270290  11.3326580  55.3256880  23.8338870  12.4532400
  41.2424130  19.6081950  12.4145540  41.2442570  20.1254340  11.6091440
  40.4128440  19.1312130  12.3915470  47.6295220  29.7201260   3.9135440
  47.0112490  30.1850710   3.3498160  48.1418470  30.4128740   4.3304950
  42.4926980  29.2477130  10.5919040  42.1596360  29.8746050  11.2340110
  42.6693660  29.7739010   9.8120710  51.0060890  23.0622210   8.0595380
  50.3016460  23.3507100   8.6398490  51.3673050  23.8722320   7.6994940
  40.9239460  21.3191910  10.4215990  41.2656270  22.1633960  10.1269860
  39.9855270  21.4675650  10.5381330  41.7046080  31.2157930  12.4068220
  42.3220080  31.8909010  12.1252670  40.8439200  31.6245910  12.3155720
  52.6223670  32.6797340  10.3222860  51.9387190  33.3496450  10.3139530
  53.1617960  32.8777990   9.5567720  54.0747810  22.5077000   8.4504590
  53.1272720  22.5415980   8.5820020  54.3997800  23.3215950   8.8353950
  44.6067350  18.8074180   6.7460580  44.9142330  18.2521070   6.0296080
  43.6768050  18.9418640   6.5633570  50.1582410  34.5241470   9.0368040
  50.1709570  34.1203760   8.1690300  49.6057630  35.2988760   8.9329470
  51.4527830  31.2457690   4.1258210  51.3424160  30.3032020   4.2507630
  51.4496080  31.6073330   5.0120970  49.5567850  29.4271310  10.3650650
  49.9736640  29.2131420   9.5304110  50.2807670  29.6844100  10.9359270
  46.9948110  26.8723010   3.4820700  46.0677390  26.8060390   3.7109170
  47.1472930  27.8103140   3.3675940  53.5029950  27.8258530  10.4566890
  52.6748580  27.8951620   9.9817020  54.0980430  28.4112840   9.9882720
  51.0245400  28.4343310   3.9855950  50.4057820  28.0962860   3.3382250
  51.0069850  27.7903070   4.6935140  50.4671960  24.6127850  11.4021760
  50.0543140  25.4381560  11.6561750  49.7347910  24.0272890  11.2098120
  42.6004750  27.3987750   6.2640430  42.1961750  26.6865000   5.7686330
  42.6867870  27.0540990   7.1528470  43.0686450  31.0855310   8.4279640
  42.7714740  30.4800780   7.7487420  44.0186270  31.1232620   8.3169000
  41.3133370  24.1730960  10.0439470  41.8647960  24.2826300   9.2692720
  41.8276880  24.5468560  10.7594700  51.1572060  34.6587180  12.0902740
  50.6802620  35.4659370  11.8975350  50.4733850  34.0065510  12.2428950
  42.1604880  30.8237000  15.0787440  41.2633410  31.0476970  15.3260840
  42.1857750  30.9471940  14.1298840  40.9876100  27.6950320  13.6544810
  40.8483870  28.5673120  14.0232210  40.1057460  27.3523130  13.5092750
  47.3105480  32.6126190   4.9609940  47.7501390  33.3550520   4.5465330
  47.2492370  32.8552760   5.8848900  42.7856450  33.6372020  15.8629960
  42.7571880  34.0414970  14.9958390  42.6221420  32.7082380  15.7001560
  39.3009380  26.2932730   3.7647080  39.1806980  27.0194820   3.1528350
  38.9910270  25.5235640   3.2874990  54.7371270  34.4199120  17.1594130
  55.2130990  34.8982010  17.8383210  55.3578430  34.3516610  16.4339630
  36.9394750  29.4647870   9.5715720  37.0175170  29.5996640   8.6271440
  37.5536430  28.7563760   9.7643840  38.1842380  31.1648060   5.9821900
  37.7770460  31.3062650   5.1275500  39.0755390  30.8808220   5.7793110
  54.1404520  31.6111970  14.3194140  54.2667580  31.3723850  13.4011320
  54.1825900  30.7796510  14.7916220  48.0021260  35.3139970  12.8888950
  48.5165930  35.2247980  13.6911380  47.1590340  35.6599670  13.1816860
  49.9775660  35.5995310   2.3172950  49.8176800  35.3098250   3.2154780
  49.8122370  34.8235440   1.7818180  42.4564040  35.3793840   4.0944570
  42.2806520  34.4629380   3.8812370  41.6019780  35.7381130   4.3342370
  49.2451720  34.7345580   4.9519440  49.7008670  33.9534960   5.2658060
  49.5844240  35.4452400   5.4960620  53.9928530  23.6644430  15.2843880
  53.3772800  24.1724100  14.7559340  53.6724950  22.7642760  15.2269820
  36.9954270  30.5062040  12.1110180  37.1585310  30.0367400  11.2929550
  37.4606720  29.9985600  12.7759020  41.7673040  19.6367800   7.1470750
  41.3241190  20.4177340   6.8155270  42.3258030  19.9597690   7.8541690
  46.0542850  22.5036320  12.7506070  45.5922220  22.7119340  13.5626010
  45.6520960  21.6895670  12.4476740  51.0547360  23.7245270  13.8802730
  50.2040950  23.4251020  14.2011800  50.8949150  23.9687280  12.9686550
  48.1497070  25.2247020  15.9801520  48.4750480  24.3910770  15.6403750
  48.9377400  25.7475540  16.1279850  43.8048940  20.1815130   9.0060350
  44.1021270  21.0877960   8.9252370  44.3534500  19.6933910   8.3919920
  41.5587260  24.7601370   4.8752000  41.3328180  24.5438540   5.7798620
  40.7779790  25.1929830   4.5297970  48.7885020  24.7664740   3.4742650
  48.1893910  25.4900540   3.2906270  49.3364630  24.7041520   2.6919100
  43.9986470  25.6586950  15.5412270  43.9030070  24.7181680  15.3912670
  44.8418450  25.8802020  15.1460340  47.3949890  23.4028280   5.5045930
  47.7879460  23.7200480   4.6914620  47.7566740  22.5240160   5.6190450
  39.1297010  22.0700620  13.6946050  38.7360400  22.9175830  13.9018830
  38.4415410  21.4326990  13.8854690  45.7042060  22.1535590  16.7642790
  45.0140380  21.9607790  17.3988880  46.4474360  22.4370230  17.2967090
  36.4314060  19.9929080   7.7276130  36.1427110  20.5631940   8.4401110
  37.1759820  19.5133530   8.0907360  47.9805030  25.9934030   9.5996710
  47.2486150  26.5020840   9.9486810  47.5829370  25.1764010   9.2985490
  44.4182420  22.6688230   8.0049200  44.4218480  22.2278180   7.1553740
  45.3133540  22.9905560   8.1121020  40.2684800  22.5514720   6.9643410
  39.9284850  23.0289950   7.7210460  39.5062120  22.0979840   6.6044510
  48.4430940  21.4467710   9.0119650  48.4603680  21.8976360   9.8561500
  48.1946520  20.5473350   9.2253090  51.8701690  18.8599890  14.8506030
  52.1947460  18.1289550  15.3764010  51.9058200  18.5413530  13.9487020
  38.5693250  29.8813470  14.2705990  38.1848040  29.2407140  14.8688950
  38.8805440  30.5849590  14.8400720  44.7190390  26.7290010   9.7514610
  45.0860520  26.2548580  10.4975950  44.5295450  27.6031580  10.0922950
  37.5830880  21.4733700   5.8808080  37.2977800  21.1089370   6.7186700
  37.5209740  20.7414160   5.2671220  42.5089760  25.7698650  12.0698820
  42.2046830  26.6490630  12.2949180  43.4636220  25.8298440  12.1056260
  41.0371550  29.9759640   2.6665670  40.2633810  29.4357260   2.5064390
  41.7666180  29.4566250   2.3283430  51.7959530  28.9725000   8.4592060
  52.5158650  29.4680290   8.0688170  51.5941350  28.2942890   7.8145930
  47.2569470  20.3662960   2.6021450  46.4434080  19.8676130   2.5266760
  47.0631420  21.2061210   2.1857800  47.1778330  29.0434060  14.3461060
  47.1115640  28.1229730  14.0918650  46.5483470  29.1409500  15.0605700
  41.0808950  29.6440020   6.3044480  41.5987620  28.8408280   6.2501370
  40.6292970  29.5819160   7.1461310  38.5653490  26.6101390  13.2170180
  38.2068430  27.2755240  13.8043520  38.2708050  25.7784940  13.5882800
  41.7666610  27.0685630  16.1009730  41.4666750  27.2142810  15.2037550
  42.5377850  26.5090920  16.0083120  47.1095060  31.8654630  14.0964860
  47.1239600  30.9335590  13.8783770  46.4020160  31.9514390  14.7354630
  53.3206270  28.5061970  13.4433440  52.5954460  29.0990750  13.2462830
  53.8481730  28.4985510  12.6446810  53.2719380  32.9036710   3.0945600
  52.6295540  32.2492330   3.3689320  52.8850040  33.3091800   2.3186270
  48.8505860  30.2322140   6.9417290  49.2029680  29.6350270   6.2818660
  47.9668190  29.9066370   7.1125540  44.9369140  30.9919830   4.3487700
  45.6240270  31.5389040   4.7295290  44.1501560  31.5360560   4.3837310
  44.2396350  27.9965860   3.9613060  44.6959130  28.8071110   4.1873250
  43.8884560  27.6789000   4.7931550  46.5428960  33.5072200  11.1905360
  47.1871180  33.7131580  11.8678780  46.9058400  32.7460600  10.7376210
  40.1408130  18.3403510   4.4335580  40.0122760  18.3321410   5.3820500
  39.3170150  18.6786600   4.0826590  47.8161040  31.5104550   9.9082810
  48.4583270  30.8097710  10.0214980  48.3410390  32.2902990   9.7279700
  49.5898660  32.3099450  13.1118870  49.9254900  32.8966140  13.7896790
  48.6699000  32.1792160  13.3416660  37.1402060  20.0994630  13.8942280
  36.4260580  20.2991550  14.4994890  37.5597100  19.3234200  14.2657080
  37.4274650  34.0874890  14.8808810  37.5365770  33.1469630  14.7404200
  36.7755210  34.3529640  14.2322540  45.4187240  32.3590780  16.2806930
  45.0984110  31.6400020  16.8252620  44.7445600  33.0345850  16.3542990
  48.6340840  22.5916940  11.6443730  49.0021660  21.7712150  11.9723300
  47.7739040  22.6518830  12.0599380  52.0002870  21.5473880   2.4531290
  51.3716030  21.6519550   1.7389520  51.5054790  21.7670660   3.2425170
  43.9686900  23.8259830   3.8689170  43.2603050  24.2946170   4.3102780
  44.2531380  23.1681840   4.5034360  45.5942830  25.2456530  11.8681700
  46.0928080  25.7202350  12.5333550  45.7365780  24.3220050  12.0751730
  48.0002330  20.5510490   5.3084960  47.8770110  20.5696620   4.3594470
  48.9486890  20.5989430   5.4283360  45.0879120  35.7865790   4.5812940
  45.3420620  35.7487180   3.6592310  44.1391600  35.6599120   4.5741190
  52.8009690  21.4624490  12.7110090  52.2983290  22.2029890  13.0503900
  53.6166350  21.8508490  12.3946880  51.0931700  26.7057670   6.1571450
  50.1521840  26.7207900   6.3319140  51.4075770  25.9193630   6.6031750
  53.0957280  33.8766520   7.8325710  53.2204700  34.6997690   8.3049520
  53.9622840  33.6657250   7.4849860  40.5674810  35.9697730   7.5042840
  41.3037290  35.4213190   7.7751410  40.9515730  36.8353740   7.3648830
  37.4520290  32.0371300   3.3784350  36.5260070  32.2792440   3.3689760
  37.9176720  32.8645560   3.2569100  39.5733090  35.1543800  16.6928420
  40.3745820  35.4755850  17.1063820  39.0584910  34.7939380  17.4148330
  48.4097720  31.2623670  16.6403830  47.8035880  31.2855270  15.8999580
  48.1051830  30.5306710  17.1771080  49.8398090  34.9903960  15.2513240
  50.7919840  34.9061980  15.2013480  49.6926310  35.6545670  15.9247030
  37.2930900  27.6417260  15.6364470  37.7969920  27.0624540  16.2080700
  36.5538320  27.9257490  16.1740840  44.3468840  29.0488250  15.1699990
  43.5814510  29.6173250  15.0854660  44.5284800  28.7564460  14.2768220
  51.4892190  30.7793580  15.7275010  52.2301660  31.1169340  15.2242470
  50.7264870  30.9485640  15.1744780  39.3253980  25.7846850  16.5314540
  39.3659320  25.4860720  17.4399770  40.1799480  26.1854460  16.3722060
  41.2659790  24.3638950  14.4989030  40.7356250  23.8729900  13.8712370
  41.9347860  24.7923150  13.9646960  50.1637850  28.8308410  14.2630220
  50.5778870  28.9853490  15.1120640  49.2288850  28.9563630  14.4256000
  50.6360020  26.1704570  16.2669370  51.2180790  25.4156890  16.1789850
  50.8121790  26.7012010  15.4900850  41.7532090  21.3301320  14.5786320
  41.6588960  20.7122070  13.8537190  41.1729480  22.0567610  14.3516230
  44.5193530  19.8874560  11.6113710  44.0710830  19.9098820  10.7659260
  43.8858730  19.4893580  12.2084010  44.9253080  28.7828890  12.2326150
  45.3441190  29.6261620  12.0602390  44.0061710  28.9200930  12.0032930
  47.2616980  26.5145070  13.6163990  47.3813190  25.9186210  14.3558830
  48.1210980  26.5514760  13.1965290  49.6004880  27.0682260  12.1926500
  49.0740100  27.5924880  11.5891640  49.9436220  27.7009650  12.8236230
  42.7760500  35.0881900  13.3483880  42.2381590  35.8127960  13.0292580
  43.0294460  34.6112240  12.5581220  44.0285750  23.0566420  14.8739810
  44.6185440  22.7482270  15.5617630  43.2105990  22.5846170  15.0299710
  48.8479180  22.6732230  15.1072830  48.1594700  22.0113770  15.0422820
  49.5685200  22.2270500  15.5521290  45.6322710  36.3233110  13.6070530
  45.5581410  37.2268250  13.9142900  44.7301550  36.0045010  13.5792600
  37.0350000  33.6507700   6.9104150  37.3653010  32.7828760   6.6782790
  37.4641000  33.8566220   7.7409110  41.6311920  31.9816710   4.5706120
  41.3307460  31.8581680   5.4710030  41.5249410  31.1225300   4.1621850
  37.5240210  34.5178290   9.6485780  37.0871200  34.6979090  10.4809930
  38.0917890  35.2752910   9.5067500  53.1602390  34.0195290  13.9363090
  52.5604380  34.0787850  13.1927010  53.2896290  33.0800270  14.0659940
  53.8560300  28.5060590   1.7767000  54.6179210  29.0757240   1.8826690
  53.8714670  27.9387790   2.5475310  37.3564640  27.0298520   6.0074660
  36.7013480  26.7610160   5.3634360  38.1942590  26.9203000   5.5576640
  54.8620270  29.3610690   6.6208930  55.2329100  28.5778010   6.2144900
  55.5022200  30.0499790   6.4426230  51.8454030  30.7447270  12.0339250
  51.0313870  31.1744430  12.2965040  52.2528230  31.3565680  11.4208300
  53.8044810  26.7363950   3.9268950  53.4288410  25.9691880   3.4950240
  53.0747930  27.1186650   4.4143880  38.3940570  27.4151090  10.5478000
  38.7613610  27.3278490  11.4274020  37.8251390  26.6517640  10.4484860
  53.1944430  25.8835470  13.5608470  52.9630520  25.6548220  12.6606420
  53.4548980  26.8035020  13.5153360  37.9456570  24.3260180  14.4536420
  37.0512620  24.2926940  14.7930130  38.4854120  24.5246970  15.2187670
  51.6332500  21.1091900  16.3388170  52.5102680  21.1175300  16.7222170
  51.6453340  20.3722740  15.7280520  53.0795770  24.9621440   7.2276190
  53.6033250  24.4684090   6.5966360  53.6655190  25.0971800   7.9723760
  53.2585490  25.0461310  10.7495740  52.3088200  25.0124850  10.8640730
  53.4398500  25.9561420  10.5145510  52.5695740  24.2194790   3.1668600
  53.0654860  23.9865660   3.9517480  52.3711810  23.3806630   2.7506240
  38.4496280  18.6008510   8.8019640  39.0972470  18.0505890   8.3614800
  38.8698120  18.8551660   9.6235450  53.9982900  22.8555740   5.7006280
  53.8882180  22.7011780   6.6388550  54.7590490  22.3276680   5.4581690
  52.3448620  18.7949870  12.1589280  52.9820840  19.4084010  12.5248470
  52.4923510  18.8310530  11.2138510  51.9030080  35.4965870   5.5607520
  52.4989150  35.1750440   4.8841940  52.1608230  35.0237690   6.3520790
  38.2028280  18.7564180  11.5444960  37.8543100  19.2128000  12.3103140
  37.8715980  17.8621310  11.6267390  39.8092650  31.9283780  15.7098150
  39.7662280  31.5576690  16.5912610  39.9403660  32.8661350  15.8499970
  43.5098680  33.4843370  11.3107870  43.2690040  33.7517930  10.4238390
  44.4501320  33.6549100  11.3658730  45.7153100  19.9476060  15.0664380
  45.6541990  20.5397890  15.8159790  46.6553480  19.8402020  14.9214640
  48.3527660  19.6046120  14.7056670  48.9668070  19.9225410  14.0437750
  48.8977220  19.1194710  15.3252530  54.7702840  35.5037750  12.1118510
  54.2761120  35.9006620  11.3945640  54.1616130  34.8786960  12.5055790
  38.8748920  18.2840380  14.8195730  39.4231910  18.1028430  14.0561840
  38.9404230  17.4934490  15.3552040  39.6480680  34.8746030  12.8295930
  39.0541000  34.7430730  13.5685970  39.6404520  34.0384170  12.3638030
  49.0935700  18.1678260  11.0325960  48.2195540  18.5013370  10.8298890
  48.9846450  17.6951440  11.8577830  50.0007680  20.3749130  12.4167680
  49.6721040  19.5600890  12.0369410  50.9489980  20.3318940  12.2933370
  52.4542290  36.1461170   9.3905250  51.9945260  36.8976980   9.0163270
  51.8254750  35.4267640   9.3320050  39.2792910  32.2404410  11.7803970
  38.5526970  31.6209700  11.7129920  39.3402060  32.6345020  10.9102050
  42.8838010  34.4549410   8.5653380  43.4003030  33.8436770   8.0401640
  43.5335390  34.9578190   9.0564390  45.6233510  35.3457900   9.3922360
  45.9111320  35.0912200   8.5155370  46.1356730  34.7935260   9.9827930
  46.8410520  19.0848100   9.9718870  46.0582310  19.5593600  10.2515630
  46.5473450  18.1802930   9.8632050  51.3931590  19.7871200   8.0167960
  51.8339680  19.7316300   7.1689560  51.1239180  20.7029210   8.0878140
  53.2570160  19.4186440   6.0276780  53.1958560  18.4747660   5.8807800
  54.0362190  19.5266530   6.5730240  37.5622910  35.5578800   4.9900730
  37.3944950  34.9249480   5.6882620  36.6957420  35.7638200   4.6394920
  38.1850930  19.3895580   2.4932590  38.9430290  19.5024460   1.9196620
  37.7228100  20.2264780   2.4476020  44.7264740  21.5034850   5.4834900
  43.9139250  21.1291740   5.1430780  45.2306380  20.7479930   5.7856090
  49.2289720  18.1677300   6.7217970  49.8319090  18.7397510   7.1966490
  48.4882710  18.7316740   6.4991870  52.3724320  18.5698860   1.9958250
  52.5674950  19.4682310   2.2625680  51.5854190  18.3385940   2.4891200
  39.1685610  34.2512030   2.4350870  38.6433230  34.6320060   1.7312830
  39.0930190  34.8762800   3.1560580  42.7513920  19.6534770   4.0879950
  42.1216660  18.9522080   4.2550080  42.2119060  20.4138900   3.8713110
  45.6905870  36.2674000  16.7590560  46.6173180  36.0318270  16.8026520
  45.6756300  37.0946000  16.2776590  53.9250930  35.8099570   3.7564810
  54.1003120  35.1237310   3.1125730  53.2272500  36.3346620   3.3641480
  42.8769480  18.9318750  16.5232440  42.5953750  19.4352350  15.7593260
  43.2589180  18.1340500  16.1574570  49.4784940  18.3472330  17.1012910
  49.3650390  18.6666940  17.9964430  50.2954680  18.7484840  16.8050190
  52.2583430  35.4943860  16.5831600  53.0508750  34.9993090  16.3757560
  52.5516580  36.1734000  17.1907210  48.3843090   7.5921310  62.5621610
  48.3037140   6.6775920  62.2913320  47.9707510   8.0888380  61.8561320
  46.5161130   9.3700330  64.4430880  45.7403230   8.8900770  64.7329450
  47.1674060   8.6905980  64.2687040  40.5326960   9.6820140  65.3206640
  39.7011840   9.4268850  65.7203150  41.1407940   9.7530910  66.0564560
  50.5368560  13.7760520  63.2230010  50.0750090  13.0047760  63.5517180
  51.3494110  13.8026590  63.7282460  40.5128220  13.7160230  65.5164660
  40.8156260  12.8257970  65.3374880  41.2571810  14.2730450  65.2886910
  38.9418910   4.6422030  59.1049030  38.0535610   4.9838000  59.0028910
  39.2260100   4.4422350  58.2129860  36.9051920   7.2427680  64.9888730
  37.4768030   6.4749880  64.9892370  36.9053460   7.5416440  64.0795340
  46.7631870  16.0618530  62.8434000  46.1443310  16.5176030  62.2728440
  47.6183650  16.2169990  62.4423700  45.9570120  12.0457520  64.4501040
  45.8878400  11.1047460  64.2890170  46.7189980  12.1358930  65.0223610
  38.1476790   2.6512040  66.7757660  37.9679630   1.7537790  67.0560420
  37.7456870   3.1983910  67.4504610  46.9875290   4.8527900  64.6769970
  47.3640110   3.9799780  64.5643640  46.8894800   5.1886600  63.7860410
  41.1180300   3.2253530  60.1387410  41.2247050   4.1257260  60.4456170
  40.2072660   3.1771500  59.8482060  50.7699410   2.3478340  61.6098310
  51.5909030   1.8574910  61.6523790  50.8033490   2.9376000  62.3630150
  38.7663460   5.1472540  65.3840000  39.4473570   5.4110910  66.0027400
  38.4511510   4.3073410  65.7178010  42.9588030   6.1939900  64.4712590
  43.4666250   6.6920870  65.1117610  43.4901270   5.4175100  64.2951950
  55.0598960   4.3645090  68.1741940  54.3551130   4.7526800  67.6557050
  55.3256880   5.0595380  68.7762870  47.6295220  10.9457770  60.2365910
  47.0112490  11.4107220  59.6728630  48.1418470  11.6385250  60.6535420
  42.4926980  10.4733640  66.9149510  42.1596360  11.1002560  67.5570580
  42.6693660  10.9995520  66.1351180  51.0060890   4.2878720  64.3825850
  50.3016460   4.5763610  64.9628960  51.3673050   5.0978830  64.0225410
  40.9239460   2.5448420  66.7446460  41.2656270   3.3890470  66.4500330
  39.9855270   2.6932160  66.8611800  41.7046080  12.4414440  68.7298690
  42.3220080  13.1165520  68.4483140  40.8439200  12.8502420  68.6386190
  36.9978420  11.6314300  57.6105540  36.6206400  12.1201400  56.8790440
  37.2551490  12.3039580  58.2412070  52.6223670  13.9053850  66.6453330
  51.9387190  14.5752960  66.6370000  53.1617960  14.1034500  65.8798190
  54.0747810   3.7333510  64.7735060  53.1272720   3.7672490  64.9050490
  54.3997800   4.5472460  65.1584420  50.1582410  15.7497980  65.3598510
  50.1709570  15.3460270  64.4920770  49.6057630  16.5245270  65.2559940
  51.4527830  12.4714200  60.4488680  51.3424160  11.5288530  60.5738100
  51.4496080  12.8329840  61.3351440  49.5567850  10.6527820  66.6881120
  49.9736640  10.4387930  65.8534580  50.2807670  10.9100610  67.2589740
  46.9948110   8.0979520  59.8051170  46.0677390   8.0316900  60.0339640
  47.1472930   9.0359650  59.6906410  46.9817190   4.3696520  56.8018330
  46.0420860   4.5310480  56.8870790  47.3000450   5.0882200  56.2554320
  53.5029950   9.0515040  66.7797360  52.6748580   9.1208130  66.3047490
  54.0980430   9.6369350  66.3113190  51.0245400   9.6599820  60.3086420
  50.4057820   9.3219370  59.6612720  51.0069850   9.0159580  61.0165610
  50.4671960   5.8384360  67.7252230  50.0543140   6.6638070  67.9792220
  49.7347910   5.2529400  67.5328590  42.6004750   8.6244260  62.5870900
  42.1961750   7.9121510  62.0916800  42.6867870   8.2797500  63.4758940
  43.0686450  12.3111820  64.7510110  42.7714740  11.7057290  64.0717890
  44.0186270  12.3489130  64.6399470  41.3133370   5.3987470  66.3669940
  41.8647960   5.5082810  65.5923190  41.8276880   5.7725070  67.0825170
  51.1572060  15.8843690  68.4133210  50.6802620  16.6915880  68.2205820
  50.4733850  15.2322020  68.5659420  49.2010100   8.8986630  57.3159170
  49.6403380   8.0609060  57.1696990  49.9138520   9.5316030  57.4023310
  47.3105480  13.8382700  61.2840410  47.7501390  14.5807030  60.8695800
  47.2492370  14.0809270  62.2079370  39.3009380   7.5189240  60.0877550
  39.1806980   8.2451330  59.4758820  38.9910270   6.7492150  59.6105460
  36.9394750  10.6904380  65.8946190  37.0175170  10.8253150  64.9501910
  37.5536430   9.9820270  66.0874310  38.1842380  12.3904570  62.3052370
  37.7770460  12.5319160  61.4505970  39.0755390  12.1064730  62.1023580
  48.0021260  16.5396480  69.2119420  48.5165930  16.4504490  70.0141850
  47.1590340  16.8856180  69.5047330  49.9775660  16.8251820  58.6403420
  49.8176800  16.5354760  59.5385250  49.8122370  16.0491950  58.1048650
  42.4564040  16.6050350  60.4175040  42.2806520  15.6885890  60.2042840
  41.6019780  16.9637640  60.6572840  49.6801790  14.3339380  57.2001420
  48.9866950  14.3316670  56.5403700  50.4224650  13.9098700  56.7695590
  49.2451720  15.9602090  61.2749910  49.7008670  15.1791470  61.5888530
  49.5844240  16.6708910  61.8191090  36.9954270  11.7318550  68.4340650
  37.1585310  11.2623910  67.6160020  37.4606720  11.2242110  69.0989490
  46.0542850   3.7292830  69.0736540  45.5922220   3.9375850  69.8856480
  45.6520960   2.9152180  68.7707210  41.5587260   5.9857880  61.1982470
  41.3328180   5.7695050  62.1029090  40.7779790   6.4186340  60.8528440
  48.7885020   5.9921250  59.7973120  48.1893910   6.7157050  59.6136740
  49.3364630   5.9298030  59.0149570  47.3949890   4.6284790  61.8276400
  47.7879460   4.9456990  61.0145090  47.7566740   3.7496670  61.9420920
  39.1297010   3.2957130  70.0176520  38.7360400   4.1432340  70.2249300
  38.4415410   2.6583500  70.2085160  36.6184290   5.1605710  55.2609320
  36.5358960   6.1036470  55.4024310  36.2667350   5.0180620  54.3821670
  47.9805030   7.2190540  65.9227180  47.2486150   7.7277350  66.2717280
  47.5829370   6.4020520  65.6215960  44.4182420   3.8944740  64.3279670
  44.4218480   3.4534690  63.4784210  45.3133540   4.2162070  64.4351490
  40.2684800   3.7771230  63.2873880  39.9284850   4.2546460  64.0440930
  39.5062120   3.3236350  62.9274980  44.4802570   4.8956820  57.3186430
  44.6015390   4.8543300  58.2672250  44.0951080   5.7580970  57.1633160
  48.4430940   2.6724220  65.3350120  48.4603680   3.1232870  66.1791970
  48.1946520   1.7729860  65.5483560  43.4924070   7.2057960  56.7169730
  42.9240970   6.7576210  56.0905640  44.2013070   7.5650740  56.1834880
  44.7190390   7.9546520  66.0745080  45.0860520   7.4805090  66.8206420
  44.5295450   8.8288090  66.4153420  37.5830880   2.6990210  62.2038550
  37.2977800   2.3345880  63.0417170  37.5209740   1.9670670  61.5901690
  42.5089760   6.9955160  68.3929290  42.2046830   7.8747140  68.6179650
  43.4636220   7.0554950  68.4286730  41.0371550  11.2016150  58.9896140
  40.2633810  10.6613770  58.8294860  41.7666180  10.6822760  58.6513900
  51.7959530  10.1981510  64.7822530  52.5158650  10.6936800  64.3918640
  51.5941350   9.5199400  64.1376400  49.9717860   5.9639120  57.2214080
  50.8597480   6.2756350  57.0465420  49.9422950   5.0911370  56.8294660
  41.0808950  10.8696530  62.6274950  41.5987620  10.0664790  62.5731840
  40.6292970  10.8075670  63.4691780  45.9678450  12.1362810  57.9002250
  46.3094150  12.8805040  57.4045570  45.1391160  12.4493930  58.2627080
  38.5653490   7.8357900  69.5400650  38.2068430   8.5011750  70.1273990
  38.2708050   7.0041450  69.9113270  52.2432130   7.2750960  56.6893940
  52.1595850   7.7065180  55.8390380  52.9626320   7.7349310  57.1220760
  53.3206270   9.7318480  69.7663910  52.5954460  10.3247260  69.5693300
  53.8481730   9.7242020  68.9677280  53.2719380  14.1293220  59.4176070
  52.6295540  13.4748840  59.6919790  52.8850040  14.5348310  58.6416740
  48.8505860  11.4578650  63.2647760  49.2029680  10.8606780  62.6049130
  47.9668190  11.1322880  63.4356010  44.9369140  12.2176340  60.6718170
  45.6240270  12.7645550  61.0525760  44.1501560  12.7617070  60.7067780
  37.0761540   7.8349160  56.1635250  37.9456390   8.1173960  56.4471170
  36.5851860   8.6485030  56.0484060  44.2396350   9.2222370  60.2843530
  44.6959130  10.0327620  60.5103720  43.8884560   8.9045510  61.1162020
  46.5428960  14.7328710  67.5135830  47.1871180  14.9388090  68.1909250
  46.9058400  13.9717110  67.0606680  47.8161040  12.7361060  66.2313280
  48.4583270  12.0354220  66.3445450  48.3410390  13.5159500  66.0510170
  51.6616760  13.0209680  55.9552420  51.4354340  12.3040120  56.5477060
  51.2712960  12.7722120  55.1174170  49.5898660  13.5355960  69.4349340
  49.9254900  14.1222650  70.1127260  48.6699000  13.4048670  69.6647130
  37.4432790  17.0476540  56.7296880  37.8030430  17.6465880  56.0754150
  37.3025130  17.5936430  57.5031910  51.2433010  10.9381620  57.6166580
  50.9554710  11.3994310  58.4044460  52.0385180  10.4779390  57.8850800
  43.4601410  14.4307740  57.5470550  43.4511510  15.1637430  56.9315060
  42.5399770  14.1839320  57.6397510  39.0608050   9.6522630  58.2917310
  38.4536000  10.3921530  58.3012610  39.5357400   9.7421990  57.4655510
  48.6340840   3.8173450  67.9674200  49.0021660   2.9968660  68.2953770
  47.7739040   3.8775340  68.3829850  52.0002870   2.7730390  58.7761760
  51.3716030   2.8776060  58.0619990  51.5054790   2.9927170  59.5655640
  46.4461010  14.4935980  56.2095740  46.5472990  14.2899970  55.2797720
  45.5462750  14.2394260  56.4143520  43.9686900   5.0516340  60.1919640
  43.2603050   5.5202680  60.6333250  44.2531380   4.3938350  60.8264830
  45.5942830   6.4713040  68.1912170  46.0928080   6.9458860  68.8564020
  45.7365780   5.5476560  68.3982200  48.0002330   1.7767000  61.6315430
  47.8770110   1.7953130  60.6824940  48.9486890   1.8245940  61.7513830
  45.0879120  17.0122300  60.9043410  45.3420620  16.9743690  59.9822780
  44.1391600  16.8855630  60.8971660  42.1721920   3.3601420  57.5670350
  43.0212450   3.7971570  57.5010540  41.8053190   3.6721680  58.3942410
  52.8009690   2.6881000  69.0340560  52.2983290   3.4286400  69.3734370
  53.6166350   3.0765000  68.7177350  51.0931700   7.9314180  62.4801920
  50.1521840   7.9464410  62.6549610  51.4075770   7.1450140  62.9262220
  41.0713340   9.6133780  56.0405880  41.8376610   9.5015140  56.6031310
  41.1488030   8.9171750  55.3882650  39.7660100   7.0458850  56.7238770
  39.8463690   6.0986360  56.8356170  40.6579850   7.3765730  56.8299430
  53.0957280  15.1023030  64.1556180  53.2204700  15.9254200  64.6279990
  53.9622840  14.8913760  63.8080330  40.5674810  17.1954240  63.8273310
  41.3037290  16.6469700  64.0981880  40.9515730  18.0610250  63.6879300
  37.4520290  13.2627810  59.7014820  36.5260070  13.5048950  59.6920230
  37.9176720  14.0902070  59.5799570  43.6777120  16.3684550  55.6498880
  44.4705730  16.6573380  55.1980670  43.1581470  15.9376720  54.9711360
  52.7307290  15.5954680  57.0735620  52.4448800  15.1819820  56.2589800
  52.5326840  16.5242390  56.9536140  44.1954520  11.5887960  55.5141230
  44.0905160  10.9740310  56.2402610  44.0278740  11.0653850  54.7304240
  47.4357250  10.6507990  56.1183220  46.8867350  11.0977290  56.7625960
  48.0576510  10.1457240  56.6420890  43.1032370   9.6098910  58.0148520
  43.5248790   9.4438780  58.8579910  43.2283210   8.7999140  57.5203660
  45.6160010   8.6336520  55.2625620  46.1365670   7.9185540  54.8966770
  46.2628410   9.2722390  55.5626130  44.9253080  10.0085400  68.5556620
  45.3441190  10.8518130  68.3832860  44.0061710  10.1457440  68.3263400
  49.6004880   8.2938770  68.5156970  49.0740100   8.8181390  67.9122110
  49.9436220   8.9266160  69.1466700  41.9991270   5.6832140  54.9606680
  41.7980330   4.8199500  55.3220020  41.8283320   5.5965500  54.0228280
  42.7760500  16.3138410  69.6714350  42.2381590  17.0384470  69.3523050
  43.0294460  15.8368750  68.8811690  40.7974070   2.7832760  54.9484560
  41.0999970   2.7900190  54.0403710  41.5368660   2.4330620  55.4452220
  45.6322710  17.5489620  69.9301000  45.5581410  18.4524760  70.2373370
  44.7301550  17.2301520  69.9023070  46.1808040  16.7148130  57.5527360
  47.0758830  17.0533100  57.5746120  46.2125670  15.9927540  56.9251640
  39.8204200  12.0875180  55.7814360  40.2579070  12.6304850  56.4371940
  40.3051930  11.2622130  55.7910700  37.0350000  14.8764210  63.2334620
  37.3653010  14.0085270  63.0013260  37.4641000  15.0822730  64.0639580
  41.6311920  13.2073220  60.8936590  41.3307460  13.0838190  61.7940500
  41.5249410  12.3481810  60.4852320  37.5240210  15.7434800  65.9716250
  37.0871200  15.9235600  66.8040400  38.0917890  16.5009420  65.8297970
  54.4003840  12.9869620  55.5963270  53.5696800  13.0546270  56.0670500
  54.5775670  13.8773740  55.2930130  53.8560300   9.7317100  58.0997470
  54.6179210  10.3013750  58.2057160  53.8714670   9.1644300  58.8705780
  37.3564640   8.2555030  62.3305130  36.7013480   7.9866670  61.6864830
  38.1942590   8.1459510  61.8807110  54.8620270  10.5867200  62.9439400
  55.2329100   9.8034520  62.5375370  55.5022200  11.2756300  62.7656700
  51.8454030  11.9703780  68.3569720  51.0313870  12.4000940  68.6195510
  52.2528230  12.5822190  67.7438770  53.9079470  10.0251470  55.2569990
  54.1828310  10.9330350  55.1289210  53.7190210   9.9614000  56.1931980
  50.3055080   3.0496320  56.5523620  50.7239960   2.8627300  55.7120280
  49.9991140   2.1975370  56.8626550  53.8044810   7.9620460  60.2499420
  53.4288410   7.1948390  59.8180710  53.0747930   8.3443160  60.7374350
  38.3940570   8.6407600  66.8708470  38.7613610   8.5535000  67.7504490
  37.8251390   7.8774150  66.7715330  53.1944430   7.1091980  69.8838940
  52.9630520   6.8804730  68.9836890  53.4548980   8.0291530  69.8383830
  36.5702720   5.4653960  58.2730460  35.6666800   5.7284160  58.0982120
  37.0543340   5.7365130  57.4930420  53.0795770   6.1877950  63.5506660
  53.6033250   5.6940600  62.9196830  53.6655190   6.3228310  64.2954230
  53.2585490   6.2717820  67.0726210  52.3088200   6.2381360  67.1871200
  53.4398500   7.1817930  66.8375980  39.1129930   4.5219500  56.1824840
  39.8221630   4.1002720  55.6972120  38.3969870   4.5894730  55.5508190
  52.5695740   5.4451300  59.4899070  53.0654860   5.2122170  60.2747950
  52.3711810   4.6063140  59.0736710  53.9982900   4.0812250  62.0236750
  53.8882180   3.9268290  62.9619020  54.7590490   3.5533190  61.7812160
  54.8873170   1.9120170  55.2642890  55.8122480   1.7801350  55.0561180
  54.8648960   1.9912990  56.2179340  54.9611660   2.6830830  57.8899600
  54.1663160   2.6175950  58.4192510  55.1654940   3.6181470  57.8784950
  51.9030080  16.7222380  61.8837990  52.4989150  16.4006950  61.2072410
  52.1608230  16.2494200  62.6751260  43.5098680  14.7099880  67.6338340
  43.2690040  14.9774440  66.7468860  44.4501320  14.8805610  67.6889200
  54.7702840  16.7294260  68.4348980  54.2761120  17.1263130  67.7176110
  54.1616130  16.1043470  68.8286260  39.6480680  16.1002540  69.1526400
  39.0541000  15.9687240  69.8916440  39.6404520  15.2640680  68.6868500
  52.4542290  17.3717680  65.7135720  51.9945260  18.1233490  65.3393740
  51.8254750  16.6524150  65.6550520  39.2792910  13.4660920  68.1034440
  38.5526970  12.8466210  68.0360390  39.3402060  13.8601530  67.2332520
  42.8838010  15.6805920  64.8883850  43.4003030  15.0693280  64.3632110
  43.5335390  16.1834700  65.3794860  45.6233510  16.5714410  65.7152830
  45.9111320  16.3168710  64.8385840  46.1356730  16.0191770  66.3058400
  37.5622910  16.7835310  61.3131200  37.3944950  16.1505990  62.0113090
  36.6957420  16.9894710  60.9625390  44.7264740   2.7291360  61.8065370
  43.9139250   2.3548250  61.4661250  45.2306380   1.9736440  62.1086560
  39.1685610  15.4768540  58.7581340  38.6433230  15.8576570  58.0543300
  39.0930190  16.1019310  59.4791050  53.9250930  17.0356080  60.0795280
  54.1003120  16.3493820  59.4356200  53.2272500  17.5603130  59.6871950
  41.7678580  17.4250920  57.6330590  42.4997400  17.1410200  57.0854480
  42.0272250  17.1864200  58.5229970  40.9293370  13.5415650  57.6376920
  40.3002250  14.0100750  58.1862750  41.0441200  12.6964870  58.0723110
  48.3843090   7.5921310  43.7878120  48.3037140   6.6775920  43.5169830
  47.9707510   8.0888380  43.0817830  46.5161130   9.3700330  45.6687390
  45.7403230   8.8900770  45.9585960  47.1674060   8.6905980  45.4943550
  40.5326960   9.6820140  46.5463150  39.7011840   9.4268850  46.9459660
  41.1407940   9.7530910  47.2821070  50.5368560  13.7760520  44.4486520
  50.0750090  13.0047760  44.7773690  51.3494110  13.8026590  44.9538970
  40.5128220  13.7160230  46.7421170  40.8156260  12.8257970  46.5631390
  41.2571810  14.2730450  46.5143420  38.9418910   4.6422030  40.3305540
  38.0535610   4.9838000  40.2285420  39.2260100   4.4422350  39.4386370
  36.9051920   7.2427680  46.2145240  37.4768030   6.4749880  46.2148880
  36.9053460   7.5416440  45.3051850  46.7631870  16.0618530  44.0690510
  46.1443310  16.5176030  43.4984950  47.6183650  16.2169990  43.6680210
  45.9570120  12.0457520  45.6757550  45.8878400  11.1047460  45.5146680
  46.7189980  12.1358930  46.2480120  38.1476790   2.6512040  48.0014170
  37.9679630   1.7537790  48.2816930  37.7456870   3.1983910  48.6761120
  46.9875290   4.8527900  45.9026480  47.3640110   3.9799780  45.7900150
  46.8894800   5.1886600  45.0116920  41.1180300   3.2253530  41.3643920
  41.2247050   4.1257260  41.6712680  40.2072660   3.1771500  41.0738570
  50.7699410   2.3478340  42.8354820  51.5909030   1.8574910  42.8780300
  50.8033490   2.9376000  43.5886660  38.7663460   5.1472540  46.6096510
  39.4473570   5.4110910  47.2283910  38.4511510   4.3073410  46.9434520
  42.9588030   6.1939900  45.6969100  43.4666250   6.6920870  46.3374120
  43.4901270   5.4175100  45.5208460  55.0598960   4.3645090  49.3998450
  54.3551130   4.7526800  48.8813560  55.3256880   5.0595380  50.0019380
  47.6295220  10.9457770  41.4622420  47.0112490  11.4107220  40.8985140
  48.1418470  11.6385250  41.8791930  42.4926980  10.4733640  48.1406020
  42.1596360  11.1002560  48.7827090  42.6693660  10.9995520  47.3607690
  51.0060890   4.2878720  45.6082360  50.3016460   4.5763610  46.1885470
  51.3673050   5.0978830  45.2481920  40.9239460   2.5448420  47.9702970
  41.2656270   3.3890470  47.6756840  39.9855270   2.6932160  48.0868310
  41.7046080  12.4414440  49.9555200  42.3220080  13.1165520  49.6739650
  40.8439200  12.8502420  49.8642700  36.9978420  11.6314300  38.8362050
  36.6206400  12.1201400  38.1046950  37.2551490  12.3039580  39.4668580
  52.6223670  13.9053850  47.8709840  51.9387190  14.5752960  47.8626510
  53.1617960  14.1034500  47.1054700  54.0747810   3.7333510  45.9991570
  53.1272720   3.7672490  46.1307000  54.3997800   4.5472460  46.3840930
  50.1582410  15.7497980  46.5855020  50.1709570  15.3460270  45.7177280
  49.6057630  16.5245270  46.4816450  51.4527830  12.4714200  41.6745190
  51.3424160  11.5288530  41.7994610  51.4496080  12.8329840  42.5607950
  49.5567850  10.6527820  47.9137630  49.9736640  10.4387930  47.0791090
  50.2807670  10.9100610  48.4846250  46.9948110   8.0979520  41.0307680
  46.0677390   8.0316900  41.2596150  47.1472930   9.0359650  40.9162920
  46.9817190   4.3696520  38.0274840  46.0420860   4.5310480  38.1127300
  47.3000450   5.0882200  37.4810830  53.5029950   9.0515040  48.0053870
  52.6748580   9.1208130  47.5304000  54.0980430   9.6369350  47.5369700
  51.0245400   9.6599820  41.5342930  50.4057820   9.3219370  40.8869230
  51.0069850   9.0159580  42.2422120  50.4671960   5.8384360  48.9508740
  50.0543140   6.6638070  49.2048730  49.7347910   5.2529400  48.7585100
  42.6004750   8.6244260  43.8127410  42.1961750   7.9121510  43.3173310
  42.6867870   8.2797500  44.7015450  43.0686450  12.3111820  45.9766620
  42.7714740  11.7057290  45.2974400  44.0186270  12.3489130  45.8655980
  41.3133370   5.3987470  47.5926450  41.8647960   5.5082810  46.8179700
  41.8276880   5.7725070  48.3081680  51.1572060  15.8843690  49.6389720
  50.6802620  16.6915880  49.4462330  50.4733850  15.2322020  49.7915930
  42.1604880  12.0493510  52.6274420  41.2633410  12.2733480  52.8747820
  42.1857750  12.1728450  51.6785820  49.2010100   8.8986630  38.5415680
  49.6403380   8.0609060  38.3953500  49.9138520   9.5316030  38.6279820
  40.9876100   8.9206830  51.2031790  40.8483870   9.7929630  51.5719190
  40.1057460   8.5779640  51.0579730  47.3105480  13.8382700  42.5096920
  47.7501390  14.5807030  42.0952310  47.2492370  14.0809270  43.4335880
  42.7856450  14.8628530  53.4116940  42.7571880  15.2671480  52.5445370
  42.6221420  13.9338890  53.2488540  39.3009380   7.5189240  41.3134060
  39.1806980   8.2451330  40.7015330  38.9910270   6.7492150  40.8361970
  54.7371270  15.6455630  54.7081110  55.2130990  16.1238520  55.3870190
  55.3578430  15.5773120  53.9826610  36.9394750  10.6904380  47.1202700
  37.0175170  10.8253150  46.1758420  37.5536430   9.9820270  47.3130820
  38.1842380  12.3904570  43.5308880  37.7770460  12.5319160  42.6762480
  39.0755390  12.1064730  43.3280090  54.1404520  12.8368480  51.8681120
  54.2667580  12.5980360  50.9498300  54.1825900  12.0053020  52.3403200
  48.0021260  16.5396480  50.4375930  48.5165930  16.4504490  51.2398360
  47.1590340  16.8856180  50.7303840  49.9775660  16.8251820  39.8659930
  49.8176800  16.5354760  40.7641760  49.8122370  16.0491950  39.3305160
  42.4564040  16.6050350  41.6431550  42.2806520  15.6885890  41.4299350
  41.6019780  16.9637640  41.8829350  49.6801790  14.3339380  38.4257930
  48.9866950  14.3316670  37.7660210  50.4224650  13.9098700  37.9952100
  49.2451720  15.9602090  42.5006420  49.7008670  15.1791470  42.8145040
  49.5844240  16.6708910  43.0447600  53.9928530   4.8900940  52.8330860
  53.3772800   5.3980610  52.3046320  53.6724950   3.9899270  52.7756800
  36.9954270  11.7318550  49.6597160  37.1585310  11.2623910  48.8416530
  37.4606720  11.2242110  50.3246000  46.0542850   3.7292830  50.2993050
  45.5922220   3.9375850  51.1112990  45.6520960   2.9152180  49.9963720
  51.0547360   4.9501780  51.4289710  50.2040950   4.6507530  51.7498780
  50.8949150   5.1943790  50.5173530  48.1497070   6.4503530  53.5288500
  48.4750480   5.6167280  53.1890730  48.9377400   6.9732050  53.6766830
  41.5587260   5.9857880  42.4238980  41.3328180   5.7695050  43.3285600
  40.7779790   6.4186340  42.0784950  48.7885020   5.9921250  41.0229630
  48.1893910   6.7157050  40.8393250  49.3364630   5.9298030  40.2406080
  43.9986470   6.8843460  53.0899250  43.9030070   5.9438190  52.9399650
  44.8418450   7.1058530  52.6947320  47.3949890   4.6284790  43.0532910
  47.7879460   4.9456990  42.2401600  47.7566740   3.7496670  43.1677430
  39.1297010   3.2957130  51.2433030  38.7360400   4.1432340  51.4505810
  38.4415410   2.6583500  51.4341670  45.7042060   3.3792100  54.3129770
  45.0140380   3.1864300  54.9475860  46.4474360   3.6626740  54.8454070
  36.6184290   5.1605710  36.4865830  36.5358960   6.1036470  36.6280820
  36.2667350   5.0180620  35.6078180  47.9805030   7.2190540  47.1483690
  47.2486150   7.7277350  47.4973790  47.5829370   6.4020520  46.8472470
  44.4182420   3.8944740  45.5536180  44.4218480   3.4534690  44.7040720
  45.3133540   4.2162070  45.6608000  40.2684800   3.7771230  44.5130390
  39.9284850   4.2546460  45.2697440  39.5062120   3.3236350  44.1531490
  44.4802570   4.8956820  38.5442940  44.6015390   4.8543300  39.4928760
  44.0951080   5.7580970  38.3889670  48.4430940   2.6724220  46.5606630
  48.4603680   3.1232870  47.4048480  48.1946520   1.7729860  46.7740070
  43.4924070   7.2057960  37.9426240  42.9240970   6.7576210  37.3162150
  44.2013070   7.5650740  37.4091390  38.5693250  11.1069980  51.8192970
  38.1848040  10.4663650  52.4175930  38.8805440  11.8106100  52.3887700
  44.7190390   7.9546520  47.3001590  45.0860520   7.4805090  48.0462930
  44.5295450   8.8288090  47.6409930  37.5830880   2.6990210  43.4295060
  37.2977800   2.3345880  44.2673680  37.5209740   1.9670670  42.8158200
  42.5089760   6.9955160  49.6185800  42.2046830   7.8747140  49.8436160
  43.4636220   7.0554950  49.6543240  41.0371550  11.2016150  40.2152650
  40.2633810  10.6613770  40.0551370  41.7666180  10.6822760  39.8770410
  51.7959530  10.1981510  46.0079040  52.5158650  10.6936800  45.6175150
  51.5941350   9.5199400  45.3632910  47.1778330  10.2690570  51.8948040
  47.1115640   9.3486240  51.6405630  46.5483470  10.3666010  52.6092680
  49.9717860   5.9639120  38.4470590  50.8597480   6.2756350  38.2721930
  49.9422950   5.0911370  38.0551170  41.0808950  10.8696530  43.8531460
  41.5987620  10.0664790  43.7988350  40.6292970  10.8075670  44.6948290
  45.9678450  12.1362810  39.1258760  46.3094150  12.8805040  38.6302080
  45.1391160  12.4493930  39.4883590  38.5653490   7.8357900  50.7657160
  38.2068430   8.5011750  51.3530500  38.2708050   7.0041450  51.1369780
  41.7666610   8.2942140  53.6496710  41.4666750   8.4399320  52.7524530
  42.5377850   7.7347430  53.5570100  47.1095060  13.0911140  51.6451840
  47.1239600  12.1592100  51.4270750  46.4020160  13.1770900  52.2841610
  52.2432130   7.2750960  37.9150450  52.1595850   7.7065180  37.0646890
  52.9626320   7.7349310  38.3477270  53.3206270   9.7318480  50.9920420
  52.5954460  10.3247260  50.7949810  53.8481730   9.7242020  50.1933790
  53.2719380  14.1293220  40.6432580  52.6295540  13.4748840  40.9176300
  52.8850040  14.5348310  39.8673250  48.8505860  11.4578650  44.4904270
  49.2029680  10.8606780  43.8305640  47.9668190  11.1322880  44.6612520
  44.9369140  12.2176340  41.8974680  45.6240270  12.7645550  42.2782270
  44.1501560  12.7617070  41.9324290  37.0761540   7.8349160  37.3891760
  37.9456390   8.1173960  37.6727680  36.5851860   8.6485030  37.2740570
  44.2396350   9.2222370  41.5100040  44.6959130  10.0327620  41.7360230
  43.8884560   8.9045510  42.3418530  46.5428960  14.7328710  48.7392340
  47.1871180  14.9388090  49.4165760  46.9058400  13.9717110  48.2863190
  47.8161040  12.7361060  47.4569790  48.4583270  12.0354220  47.5701960
  48.3410390  13.5159500  47.2766680  51.6616760  13.0209680  37.1808930
  51.4354340  12.3040120  37.7733570  51.2712960  12.7722120  36.3430680
  49.5898660  13.5355960  50.6605850  49.9254900  14.1222650  51.3383770
  48.6699000  13.4048670  50.8903640  37.4432790  17.0476540  37.9553390
  37.8030430  17.6465880  37.3010660  37.3025130  17.5936430  38.7288420
  51.2433010  10.9381620  38.8423090  50.9554710  11.3994310  39.6300970
  52.0385180  10.4779390  39.1107310  37.4274650  15.3131400  52.4295790
  37.5365770  14.3726140  52.2891180  36.7755210  15.5786150  51.7809520
  45.4187240  13.5847290  53.8293910  45.0984110  12.8656530  54.3739600
  44.7445600  14.2602360  53.9029970  43.4601410  14.4307740  38.7727060
  43.4511510  15.1637430  38.1571570  42.5399770  14.1839320  38.8654020
  39.0608050   9.6522630  39.5173820  38.4536000  10.3921530  39.5269120
  39.5357400   9.7421990  38.6912020  48.6340840   3.8173450  49.1930710
  49.0021660   2.9968660  49.5210280  47.7739040   3.8775340  49.6086360
  52.0002870   2.7730390  40.0018270  51.3716030   2.8776060  39.2876500
  51.5054790   2.9927170  40.7912150  46.4461010  14.4935980  37.4352250
  46.5472990  14.2899970  36.5054230  45.5462750  14.2394260  37.6400030
  43.9686900   5.0516340  41.4176150  43.2603050   5.5202680  41.8589760
  44.2531380   4.3938350  42.0521340  45.5942830   6.4713040  49.4168680
  46.0928080   6.9458860  50.0820530  45.7365780   5.5476560  49.6238710
  48.0002330   1.7767000  42.8571940  47.8770110   1.7953130  41.9081450
  48.9486890   1.8245940  42.9770340  45.0879120  17.0122300  42.1299920
  45.3420620  16.9743690  41.2079290  44.1391600  16.8855630  42.1228170
  42.1721920   3.3601420  38.7926860  43.0212450   3.7971570  38.7267050
  41.8053190   3.6721680  39.6198920  52.8009690   2.6881000  50.2597070
  52.2983290   3.4286400  50.5990880  53.6166350   3.0765000  49.9433860
  51.0931700   7.9314180  43.7058430  50.1521840   7.9464410  43.8806120
  51.4075770   7.1450140  44.1518730  41.0713340   9.6133780  37.2662390
  41.8376610   9.5015140  37.8287820  41.1488030   8.9171750  36.6139160
  39.7660100   7.0458850  37.9495280  39.8463690   6.0986360  38.0612680
  40.6579850   7.3765730  38.0555940  53.0957280  15.1023030  45.3812690
  53.2204700  15.9254200  45.8536500  53.9622840  14.8913760  45.0336840
  40.5674810  17.1954240  45.0529820  41.3037290  16.6469700  45.3238390
  40.9515730  18.0610250  44.9135810  37.4520290  13.2627810  40.9271330
  36.5260070  13.5048950  40.9176740  37.9176720  14.0902070  40.8056080
  39.5733090  16.3800310  54.2415400  40.3745820  16.7012360  54.6550800
  39.0584910  16.0195890  54.9635310  43.6777120  16.3684550  36.8755390
  44.4705730  16.6573380  36.4237180  43.1581470  15.9376720  36.1967870
  48.4097720  12.4880180  54.1890810  47.8035880  12.5111780  53.4486560
  48.1051830  11.7563220  54.7258060  49.8398090  16.2160470  52.8000220
  50.7919840  16.1318490  52.7500460  49.6926310  16.8802180  53.4734010
  52.7307290  15.5954680  38.2992130  52.4448800  15.1819820  37.4846310
  52.5326840  16.5242390  38.1792650  37.2930900   8.8673770  53.1851450
  37.7969920   8.2881050  53.7567680  36.5538320   9.1514000  53.7227820
  44.1954520  11.5887960  36.7397740  44.0905160  10.9740310  37.4659120
  44.0278740  11.0653850  35.9560750  44.3468840  10.2744760  52.7186970
  43.5814510  10.8429760  52.6341640  44.5284800   9.9820970  51.8255200
  47.4357250  10.6507990  37.3439730  46.8867350  11.0977290  37.9882470
  48.0576510  10.1457240  37.8677400  51.4892190  12.0050090  53.2761990
  52.2301660  12.3425850  52.7729450  50.7264870  12.1742150  52.7231760
  39.3253980   7.0103360  54.0801520  39.3659320   6.7117230  54.9886750
  40.1799480   7.4110970  53.9209040  43.1032370   9.6098910  39.2405030
  43.5248790   9.4438780  40.0836420  43.2283210   8.7999140  38.7460170
  41.2659790   5.5895460  52.0476010  40.7356250   5.0986410  51.4199350
  41.9347860   6.0179660  51.5133940  45.6160010   8.6336520  36.4882130
  46.1365670   7.9185540  36.1223280  46.2628410   9.2722390  36.7882640
  50.1637850  10.0564920  51.8117200  50.5778870  10.2110000  52.6607620
  49.2288850  10.1820140  51.9742980  50.6360020   7.3961080  53.8156350
  51.2180790   6.6413400  53.7276830  50.8121790   7.9268520  53.0387830
  41.7532090   2.5557830  52.1273300  41.6588960   1.9378580  51.4024170
  41.1729480   3.2824120  51.9003210  44.9253080  10.0085400  49.7813130
  45.3441190  10.8518130  49.6089370  44.0061710  10.1457440  49.5519910
  47.2616980   7.7401580  51.1650970  47.3813190   7.1442720  51.9045810
  48.1210980   7.7771270  50.7452270  49.6004880   8.2938770  49.7413480
  49.0740100   8.8181390  49.1378620  49.9436220   8.9266160  50.3723210
  41.9991270   5.6832140  36.1863190  41.7980330   4.8199500  36.5476530
  41.8283320   5.5965500  35.2484790  42.7760500  16.3138410  50.8970860
  42.2381590  17.0384470  50.5779560  43.0294460  15.8368750  50.1068200
  44.0285750   4.2822930  52.4226790  44.6185440   3.9738780  53.1104610
  43.2105990   3.8102680  52.5786690  48.8479180   3.8988740  52.6559810
  48.1594700   3.2370280  52.5909800  49.5685200   3.4527010  53.1008270
  40.7974070   2.7832760  36.1741070  41.0999970   2.7900190  35.2660220
  41.5368660   2.4330620  36.6708730  45.6322710  17.5489620  51.1557510
  45.5581410  18.4524760  51.4629880  44.7301550  17.2301520  51.1279580
  46.1808040  16.7148130  38.7783870  47.0758830  17.0533100  38.8002630
  46.2125670  15.9927540  38.1508150  39.8204200  12.0875180  37.0070870
  40.2579070  12.6304850  37.6628450  40.3051930  11.2622130  37.0167210
  37.0350000  14.8764210  44.4591130  37.3653010  14.0085270  44.2269770
  37.4641000  15.0822730  45.2896090  41.6311920  13.2073220  42.1193100
  41.3307460  13.0838190  43.0197010  41.5249410  12.3481810  41.7108830
  37.5240210  15.7434800  47.1972760  37.0871200  15.9235600  48.0296910
  38.0917890  16.5009420  47.0554480  53.1602390  15.2451800  51.4850070
  52.5604380  15.3044360  50.7413990  53.2896290  14.3056780  51.6146920
  54.4003840  12.9869620  36.8219780  53.5696800  13.0546270  37.2927010
  54.5775670  13.8773740  36.5186640  53.8560300   9.7317100  39.3253980
  54.6179210  10.3013750  39.4313670  53.8714670   9.1644300  40.0962290
  37.3564640   8.2555030  43.5561640  36.7013480   7.9866670  42.9121340
  38.1942590   8.1459510  43.1063620  54.8620270  10.5867200  44.1695910
  55.2329100   9.8034520  43.7631880  55.5022200  11.2756300  43.9913210
  51.8454030  11.9703780  49.5826230  51.0313870  12.4000940  49.8452020
  52.2528230  12.5822190  48.9695280  53.9079470  10.0251470  36.4826500
  54.1828310  10.9330350  36.3545720  53.7190210   9.9614000  37.4188490
  50.3055080   3.0496320  37.7780130  50.7239960   2.8627300  36.9376790
  49.9991140   2.1975370  38.0883060  53.8044810   7.9620460  41.4755930
  53.4288410   7.1948390  41.0437220  53.0747930   8.3443160  41.9630860
  38.3940570   8.6407600  48.0964980  38.7613610   8.5535000  48.9761000
  37.8251390   7.8774150  47.9971840  53.1944430   7.1091980  51.1095450
  52.9630520   6.8804730  50.2093400  53.4548980   8.0291530  51.0640340
  37.9456570   5.5516690  52.0023400  37.0512620   5.5183450  52.3417110
  38.4854120   5.7503480  52.7674650  36.5702720   5.4653960  39.4986970
  35.6666800   5.7284160  39.3238630  37.0543340   5.7365130  38.7186930
  53.0795770   6.1877950  44.7763170  53.6033250   5.6940600  44.1453340
  53.6655190   6.3228310  45.5210740  53.2585490   6.2717820  48.2982720
  52.3088200   6.2381360  48.4127710  53.4398500   7.1817930  48.0632490
  39.1129930   4.5219500  37.4081350  39.8221630   4.1002720  36.9228630
  38.3969870   4.5894730  36.7764700  52.5695740   5.4451300  40.7155580
  53.0654860   5.2122170  41.5004460  52.3711810   4.6063140  40.2993220
  53.9982900   4.0812250  43.2493260  53.8882180   3.9268290  44.1875530
  54.7590490   3.5533190  43.0068670  54.8873170   1.9120170  36.4899400
  55.8122480   1.7801350  36.2817690  54.8648960   1.9912990  37.4435850
  54.9611660   2.6830830  39.1156110  54.1663160   2.6175950  39.6449020
  55.1654940   3.6181470  39.1041460  51.9030080  16.7222380  43.1094500
  52.4989150  16.4006950  42.4328920  52.1608230  16.2494200  43.9007770
  39.8092650  13.1540290  53.2585130  39.7662280  12.7833200  54.1399590
  39.9403660  14.0917860  53.3986950  43.5098680  14.7099880  48.8594850
  43.2690040  14.9774440  47.9725370  44.4501320  14.8805610  48.9145710
  54.7702840  16.7294260  49.6605490  54.2761120  17.1263130  48.9432620
  54.1616130  16.1043470  50.0542770  39.6480680  16.1002540  50.3782910
  39.0541000  15.9687240  51.1172950  39.6404520  15.2640680  49.9125010
  52.4542290  17.3717680  46.9392230  51.9945260  18.1233490  46.5650250
  51.8254750  16.6524150  46.8807030  39.2792910  13.4660920  49.3290950
  38.5526970  12.8466210  49.2616900  39.3402060  13.8601530  48.4589030
  42.8838010  15.6805920  46.1140360  43.4003030  15.0693280  45.5888620
  43.5335390  16.1834700  46.6051370  45.6233510  16.5714410  46.9409340
  45.9111320  16.3168710  46.0642350  46.1356730  16.0191770  47.5314910
  37.5622910  16.7835310  42.5387710  37.3944950  16.1505990  43.2369600
  36.6957420  16.9894710  42.1881900  44.7264740   2.7291360  43.0321880
  43.9139250   2.3548250  42.6917760  45.2306380   1.9736440  43.3343070
  39.1685610  15.4768540  39.9837850  38.6433230  15.8576570  39.2799810
  39.0930190  16.1019310  40.7047560  45.6905870  17.4930510  54.3077540
  46.6173180  17.2574780  54.3513500  45.6756300  18.3202510  53.8263570
  53.9250930  17.0356080  41.3051790  54.1003120  16.3493820  40.6612710
  53.2272500  17.5603130  40.9128460  41.7678580  17.4250920  38.8587100
  42.4997400  17.1410200  38.3110990  42.0272250  17.1864200  39.7486480
  40.9293370  13.5415650  38.8633430  40.3002250  14.0100750  39.4119260
  41.0441200  12.6964870  39.2979620  52.2583430  16.7200370  54.1318580
  53.0508750  16.2249600  53.9244540  52.5516580  17.3990510  54.7394190
  48.3843090   7.5921310  25.0134630  48.3037140   6.6775920  24.7426340
  47.9707510   8.0888380  24.3074340  46.5161130   9.3700330  26.8943900
  45.7403230   8.8900770  27.1842470  47.1674060   8.6905980  26.7200060
  40.5326960   9.6820140  27.7719660  39.7011840   9.4268850  28.1716170
  41.1407940   9.7530910  28.5077580  50.5368560  13.7760520  25.6743030
  50.0750090  13.0047760  26.0030200  51.3494110  13.8026590  26.1795480
  40.5128220  13.7160230  27.9677680  40.8156260  12.8257970  27.7887900
  41.2571810  14.2730450  27.7399930  38.9418910   4.6422030  21.5562050
  38.0535610   4.9838000  21.4541930  39.2260100   4.4422350  20.6642880
  36.9051920   7.2427680  27.4401750  37.4768030   6.4749880  27.4405390
  36.9053460   7.5416440  26.5308360  46.7631870  16.0618530  25.2947020
  46.1443310  16.5176030  24.7241460  47.6183650  16.2169990  24.8936720
  45.9570120  12.0457520  26.9014060  45.8878400  11.1047460  26.7403190
  46.7189980  12.1358930  27.4736630  38.1476790   2.6512040  29.2270680
  37.9679630   1.7537790  29.5073440  37.7456870   3.1983910  29.9017630
  46.9875290   4.8527900  27.1282990  47.3640110   3.9799780  27.0156660
  46.8894800   5.1886600  26.2373430  41.1180300   3.2253530  22.5900430
  41.2247050   4.1257260  22.8969190  40.2072660   3.1771500  22.2995080
  50.7699410   2.3478340  24.0611330  51.5909030   1.8574910  24.1036810
  50.8033490   2.9376000  24.8143170  38.7663460   5.1472540  27.8353020
  39.4473570   5.4110910  28.4540420  38.4511510   4.3073410  28.1691030
  42.9588030   6.1939900  26.9225610  43.4666250   6.6920870  27.5630630
  43.4901270   5.4175100  26.7464970  55.0598960   4.3645090  30.6254960
  54.3551130   4.7526800  30.1070070  55.3256880   5.0595380  31.2275890
  47.6295220  10.9457770  22.6878930  47.0112490  11.4107220  22.1241650
  48.1418470  11.6385250  23.1048440  42.4926980  10.4733640  29.3662530
  42.1596360  11.1002560  30.0083600  42.6693660  10.9995520  28.5864200
  51.0060890   4.2878720  26.8338870  50.3016460   4.5763610  27.4141980
  51.3673050   5.0978830  26.4738430  40.9239460   2.5448420  29.1959480
  41.2656270   3.3890470  28.9013350  39.9855270   2.6932160  29.3124820
  41.7046080  12.4414440  31.1811710  42.3220080  13.1165520  30.8996160
  40.8439200  12.8502420  31.0899210  36.9978420  11.6314300  20.0618560
  36.6206400  12.1201400  19.3303460  37.2551490  12.3039580  20.6925090
  52.6223670  13.9053850  29.0966350  51.9387190  14.5752960  29.0883020
  53.1617960  14.1034500  28.3311210  54.0747810   3.7333510  27.2248080
  53.1272720   3.7672490  27.3563510  54.3997800   4.5472460  27.6097440
  50.1582410  15.7497980  27.8111530  50.1709570  15.3460270  26.9433790
  49.6057630  16.5245270  27.7072960  51.4527830  12.4714200  22.9001700
  51.3424160  11.5288530  23.0251120  51.4496080  12.8329840  23.7864460
  49.5567850  10.6527820  29.1394140  49.9736640  10.4387930  28.3047600
  50.2807670  10.9100610  29.7102760  46.9948110   8.0979520  22.2564190
  46.0677390   8.0316900  22.4852660  47.1472930   9.0359650  22.1419430
  46.9817190   4.3696520  19.2531350  46.0420860   4.5310480  19.3383810
  47.3000450   5.0882200  18.7067340  53.5029950   9.0515040  29.2310380
  52.6748580   9.1208130  28.7560510  54.0980430   9.6369350  28.7626210
  51.0245400   9.6599820  22.7599440  50.4057820   9.3219370  22.1125740
  51.0069850   9.0159580  23.4678630  50.4671960   5.8384360  30.1765250
  50.0543140   6.6638070  30.4305240  49.7347910   5.2529400  29.9841610
  42.6004750   8.6244260  25.0383920  42.1961750   7.9121510  24.5429820
  42.6867870   8.2797500  25.9271960  43.0686450  12.3111820  27.2023130
  42.7714740  11.7057290  26.5230910  44.0186270  12.3489130  27.0912490
  41.3133370   5.3987470  28.8182960  41.8647960   5.5082810  28.0436210
  41.8276880   5.7725070  29.5338190  51.1572060  15.8843690  30.8646230
  50.6802620  16.6915880  30.6718840  50.4733850  15.2322020  31.0172440
  42.1604880  12.0493510  33.8530930  41.2633410  12.2733480  34.1004330
  42.1857750  12.1728450  32.9042330  49.2010100   8.8986630  19.7672190
  49.6403380   8.0609060  19.6210010  49.9138520   9.5316030  19.8536330
  40.9876100   8.9206830  32.4288300  40.8483870   9.7929630  32.7975700
  40.1057460   8.5779640  32.2836240  47.3105480  13.8382700  23.7353430
  47.7501390  14.5807030  23.3208820  47.2492370  14.0809270  24.6592390
  42.7856450  14.8628530  34.6373450  42.7571880  15.2671480  33.7701880
  42.6221420  13.9338890  34.4745050  39.3009380   7.5189240  22.5390570
  39.1806980   8.2451330  21.9271840  38.9910270   6.7492150  22.0618480
  54.7371270  15.6455630  35.9337620  55.2130990  16.1238520  36.6126700
  55.3578430  15.5773120  35.2083120  36.9394750  10.6904380  28.3459210
  37.0175170  10.8253150  27.4014930  37.5536430   9.9820270  28.5387330
  38.1842380  12.3904570  24.7565390  37.7770460  12.5319160  23.9018990
  39.0755390  12.1064730  24.5536600  54.1404520  12.8368480  33.0937630
  54.2667580  12.5980360  32.1754810  54.1825900  12.0053020  33.5659710
  48.0021260  16.5396480  31.6632440  48.5165930  16.4504490  32.4654870
  47.1590340  16.8856180  31.9560350  49.9775660  16.8251820  21.0916440
  49.8176800  16.5354760  21.9898270  49.8122370  16.0491950  20.5561670
  42.4564040  16.6050350  22.8688060  42.2806520  15.6885890  22.6555860
  41.6019780  16.9637640  23.1085860  49.6801790  14.3339380  19.6514440
  48.9866950  14.3316670  18.9916720  50.4224650  13.9098700  19.2208610
  49.2451720  15.9602090  23.7262930  49.7008670  15.1791470  24.0401550
  49.5844240  16.6708910  24.2704110  53.9928530   4.8900940  34.0587370
  53.3772800   5.3980610  33.5302830  53.6724950   3.9899270  34.0013310
  36.9954270  11.7318550  30.8853670  37.1585310  11.2623910  30.0673040
  37.4606720  11.2242110  31.5502510  46.0542850   3.7292830  31.5249560
  45.5922220   3.9375850  32.3369500  45.6520960   2.9152180  31.2220230
  51.0547360   4.9501780  32.6546220  50.2040950   4.6507530  32.9755290
  50.8949150   5.1943790  31.7430040  48.1497070   6.4503530  34.7545010
  48.4750480   5.6167280  34.4147240  48.9377400   6.9732050  34.9023340
  41.5587260   5.9857880  23.6495490  41.3328180   5.7695050  24.5542110
  40.7779790   6.4186340  23.3041460  48.7885020   5.9921250  22.2486140
  48.1893910   6.7157050  22.0649760  49.3364630   5.9298030  21.4662590
  43.9986470   6.8843460  34.3155760  43.9030070   5.9438190  34.1656160
  44.8418450   7.1058530  33.9203830  47.3949890   4.6284790  24.2789420
  47.7879460   4.9456990  23.4658110  47.7566740   3.7496670  24.3933940
  39.1297010   3.2957130  32.4689540  38.7360400   4.1432340  32.6762320
  38.4415410   2.6583500  32.6598180  45.7042060   3.3792100  35.5386280
  45.0140380   3.1864300  36.1732370  46.4474360   3.6626740  36.0710580
  36.6184290   5.1605710  17.7122340  36.5358960   6.1036470  17.8537330
  36.2667350   5.0180620  16.8334690  47.9805030   7.2190540  28.3740200
  47.2486150   7.7277350  28.7230300  47.5829370   6.4020520  28.0728980
  44.4182420   3.8944740  26.7792690  44.4218480   3.4534690  25.9297230
  45.3133540   4.2162070  26.8864510  40.2684800   3.7771230  25.7386900
  39.9284850   4.2546460  26.4953950  39.5062120   3.3236350  25.3788000
  44.4802570   4.8956820  19.7699450  44.6015390   4.8543300  20.7185270
  44.0951080   5.7580970  19.6146180  48.4430940   2.6724220  27.7863140
  48.4603680   3.1232870  28.6304990  48.1946520   1.7729860  27.9996580
  43.4924070   7.2057960  19.1682750  42.9240970   6.7576210  18.5418660
  44.2013070   7.5650740  18.6347900  38.5693250  11.1069980  33.0449480
  38.1848040  10.4663650  33.6432440  38.8805440  11.8106100  33.6144210
  44.7190390   7.9546520  28.5258100  45.0860520   7.4805090  29.2719440
  44.5295450   8.8288090  28.8666440  37.5830880   2.6990210  24.6551570
  37.2977800   2.3345880  25.4930190  37.5209740   1.9670670  24.0414710
  42.5089760   6.9955160  30.8442310  42.2046830   7.8747140  31.0692670
  43.4636220   7.0554950  30.8799750  41.0371550  11.2016150  21.4409160
  40.2633810  10.6613770  21.2807880  41.7666180  10.6822760  21.1026920
  51.7959530  10.1981510  27.2335550  52.5158650  10.6936800  26.8431660
  51.5941350   9.5199400  26.5889420  47.1778330  10.2690570  33.1204550
  47.1115640   9.3486240  32.8662140  46.5483470  10.3666010  33.8349190
  49.9717860   5.9639120  19.6727100  50.8597480   6.2756350  19.4978440
  49.9422950   5.0911370  19.2807680  41.0808950  10.8696530  25.0787970
  41.5987620  10.0664790  25.0244860  40.6292970  10.8075670  25.9204800
  45.9678450  12.1362810  20.3515270  46.3094150  12.8805040  19.8558590
  45.1391160  12.4493930  20.7140100  38.5653490   7.8357900  31.9913670
  38.2068430   8.5011750  32.5787010  38.2708050   7.0041450  32.3626290
  41.7666610   8.2942140  34.8753220  41.4666750   8.4399320  33.9781040
  42.5377850   7.7347430  34.7826610  47.1095060  13.0911140  32.8708350
  47.1239600  12.1592100  32.6527260  46.4020160  13.1770900  33.5098120
  52.2432130   7.2750960  19.1406960  52.1595850   7.7065180  18.2903400
  52.9626320   7.7349310  19.5733780  53.3206270   9.7318480  32.2176930
  52.5954460  10.3247260  32.0206320  53.8481730   9.7242020  31.4190300
  53.2719380  14.1293220  21.8689090  52.6295540  13.4748840  22.1432810
  52.8850040  14.5348310  21.0929760  48.8505860  11.4578650  25.7160780
  49.2029680  10.8606780  25.0562150  47.9668190  11.1322880  25.8869030
  44.9369140  12.2176340  23.1231190  45.6240270  12.7645550  23.5038780
  44.1501560  12.7617070  23.1580800  37.0761540   7.8349160  18.6148270
  37.9456390   8.1173960  18.8984190  36.5851860   8.6485030  18.4997080
  44.2396350   9.2222370  22.7356550  44.6959130  10.0327620  22.9616740
  43.8884560   8.9045510  23.5675040  46.5428960  14.7328710  29.9648850
  47.1871180  14.9388090  30.6422270  46.9058400  13.9717110  29.5119700
  47.8161040  12.7361060  28.6826300  48.4583270  12.0354220  28.7958470
  48.3410390  13.5159500  28.5023190  51.6616760  13.0209680  18.4065440
  51.4354340  12.3040120  18.9990080  51.2712960  12.7722120  17.5687190
  49.5898660  13.5355960  31.8862360  49.9254900  14.1222650  32.5640280
  48.6699000  13.4048670  32.1160150  37.4432790  17.0476540  19.1809900
  37.8030430  17.6465880  18.5267170  37.3025130  17.5936430  19.9544930
  51.2433010  10.9381620  20.0679600  50.9554710  11.3994310  20.8557480
  52.0385180  10.4779390  20.3363820  37.4274650  15.3131400  33.6552300
  37.5365770  14.3726140  33.5147690  36.7755210  15.5786150  33.0066030
  45.4187240  13.5847290  35.0550420  45.0984110  12.8656530  35.5996110
  44.7445600  14.2602360  35.1286480  43.4601410  14.4307740  19.9983570
  43.4511510  15.1637430  19.3828080  42.5399770  14.1839320  20.0910530
  39.0608050   9.6522630  20.7430330  38.4536000  10.3921530  20.7525630
  39.5357400   9.7421990  19.9168530  48.6340840   3.8173450  30.4187220
  49.0021660   2.9968660  30.7466790  47.7739040   3.8775340  30.8342870
  52.0002870   2.7730390  21.2274780  51.3716030   2.8776060  20.5133010
  51.5054790   2.9927170  22.0168660  46.4461010  14.4935980  18.6608760
  46.5472990  14.2899970  17.7310740  45.5462750  14.2394260  18.8656540
  43.9686900   5.0516340  22.6432660  43.2603050   5.5202680  23.0846270
  44.2531380   4.3938350  23.2777850  45.5942830   6.4713040  30.6425190
  46.0928080   6.9458860  31.3077040  45.7365780   5.5476560  30.8495220
  48.0002330   1.7767000  24.0828450  47.8770110   1.7953130  23.1337960
  48.9486890   1.8245940  24.2026850  45.0879120  17.0122300  23.3556430
  45.3420620  16.9743690  22.4335800  44.1391600  16.8855630  23.3484680
  42.1721920   3.3601420  20.0183370  43.0212450   3.7971570  19.9523560
  41.8053190   3.6721680  20.8455430  52.8009690   2.6881000  31.4853580
  52.2983290   3.4286400  31.8247390  53.6166350   3.0765000  31.1690370
  51.0931700   7.9314180  24.9314940  50.1521840   7.9464410  25.1062630
  51.4075770   7.1450140  25.3775240  41.0713340   9.6133780  18.4918900
  41.8376610   9.5015140  19.0544330  41.1488030   8.9171750  17.8395670
  39.7660100   7.0458850  19.1751790  39.8463690   6.0986360  19.2869190
  40.6579850   7.3765730  19.2812450  53.0957280  15.1023030  26.6069200
  53.2204700  15.9254200  27.0793010  53.9622840  14.8913760  26.2593350
  40.5674810  17.1954240  26.2786330  41.3037290  16.6469700  26.5494900
  40.9515730  18.0610250  26.1392320  37.4520290  13.2627810  22.1527840
  36.5260070  13.5048950  22.1433250  37.9176720  14.0902070  22.0312590
  39.5733090  16.3800310  35.4671910  40.3745820  16.7012360  35.8807310
  39.0584910  16.0195890  36.1891820  43.6777120  16.3684550  18.1011900
  44.4705730  16.6573380  17.6493690  43.1581470  15.9376720  17.4224380
  48.4097720  12.4880180  35.4147320  47.8035880  12.5111780  34.6743070
  48.1051830  11.7563220  35.9514570  49.8398090  16.2160470  34.0256730
  50.7919840  16.1318490  33.9756970  49.6926310  16.8802180  34.6990520
  52.7307290  15.5954680  19.5248640  52.4448800  15.1819820  18.7102820
  52.5326840  16.5242390  19.4049160  37.2930900   8.8673770  34.4107960
  37.7969920   8.2881050  34.9824190  36.5538320   9.1514000  34.9484330
  44.1954520  11.5887960  17.9654250  44.0905160  10.9740310  18.6915630
  44.0278740  11.0653850  17.1817260  44.3468840  10.2744760  33.9443480
  43.5814510  10.8429760  33.8598150  44.5284800   9.9820970  33.0511710
  47.4357250  10.6507990  18.5696240  46.8867350  11.0977290  19.2138980
  48.0576510  10.1457240  19.0933910  51.4892190  12.0050090  34.5018500
  52.2301660  12.3425850  33.9985960  50.7264870  12.1742150  33.9488270
  39.3253980   7.0103360  35.3058030  39.3659320   6.7117230  36.2143260
  40.1799480   7.4110970  35.1465550  43.1032370   9.6098910  20.4661540
  43.5248790   9.4438780  21.3092930  43.2283210   8.7999140  19.9716680
  41.2659790   5.5895460  33.2732520  40.7356250   5.0986410  32.6455860
  41.9347860   6.0179660  32.7390450  45.6160010   8.6336520  17.7138640
  46.1365670   7.9185540  17.3479790  46.2628410   9.2722390  18.0139150
  50.1637850  10.0564920  33.0373710  50.5778870  10.2110000  33.8864130
  49.2288850  10.1820140  33.1999490  50.6360020   7.3961080  35.0412860
  51.2180790   6.6413400  34.9533340  50.8121790   7.9268520  34.2644340
  41.7532090   2.5557830  33.3529810  41.6588960   1.9378580  32.6280680
  41.1729480   3.2824120  33.1259720  44.9253080  10.0085400  31.0069640
  45.3441190  10.8518130  30.8345880  44.0061710  10.1457440  30.7776420
  47.2616980   7.7401580  32.3907480  47.3813190   7.1442720  33.1302320
  48.1210980   7.7771270  31.9708780  49.6004880   8.2938770  30.9669990
  49.0740100   8.8181390  30.3635130  49.9436220   8.9266160  31.5979720
  41.9991270   5.6832140  17.4119700  41.7980330   4.8199500  17.7733040
  41.8283320   5.5965500  16.4741300  42.7760500  16.3138410  32.1227370
  42.2381590  17.0384470  31.8036070  43.0294460  15.8368750  31.3324710
  44.0285750   4.2822930  33.6483300  44.6185440   3.9738780  34.3361120
  43.2105990   3.8102680  33.8043200  48.8479180   3.8988740  33.8816320
  48.1594700   3.2370280  33.8166310  49.5685200   3.4527010  34.3264780
  40.7974070   2.7832760  17.3997580  41.0999970   2.7900190  16.4916730
  41.5368660   2.4330620  17.8965240  45.6322710  17.5489620  32.3814020
  45.5581410  18.4524760  32.6886390  44.7301550  17.2301520  32.3536090
  46.1808040  16.7148130  20.0040380  47.0758830  17.0533100  20.0259140
  46.2125670  15.9927540  19.3764660  39.8204200  12.0875180  18.2327380
  40.2579070  12.6304850  18.8884960  40.3051930  11.2622130  18.2423720
  37.0350000  14.8764210  25.6847640  37.3653010  14.0085270  25.4526280
  37.4641000  15.0822730  26.5152600  41.6311920  13.2073220  23.3449610
  41.3307460  13.0838190  24.2453520  41.5249410  12.3481810  22.9365340
  37.5240210  15.7434800  28.4229270  37.0871200  15.9235600  29.2553420
  38.0917890  16.5009420  28.2810990  53.1602390  15.2451800  32.7106580
  52.5604380  15.3044360  31.9670500  53.2896290  14.3056780  32.8403430
  54.4003840  12.9869620  18.0476290  53.5696800  13.0546270  18.5183520
  54.5775670  13.8773740  17.7443150  53.8560300   9.7317100  20.5510490
  54.6179210  10.3013750  20.6570180  53.8714670   9.1644300  21.3218800
  37.3564640   8.2555030  24.7818150  36.7013480   7.9866670  24.1377850
  38.1942590   8.1459510  24.3320130  54.8620270  10.5867200  25.3952420
  55.2329100   9.8034520  24.9888390  55.5022200  11.2756300  25.2169720
  51.8454030  11.9703780  30.8082740  51.0313870  12.4000940  31.0708530
  52.2528230  12.5822190  30.1951790  53.9079470  10.0251470  17.7083010
  54.1828310  10.9330350  17.5802230  53.7190210   9.9614000  18.6445000
  50.3055080   3.0496320  19.0036640  50.7239960   2.8627300  18.1633300
  49.9991140   2.1975370  19.3139570  53.8044810   7.9620460  22.7012440
  53.4288410   7.1948390  22.2693730  53.0747930   8.3443160  23.1887370
  38.3940570   8.6407600  29.3221490  38.7613610   8.5535000  30.2017510
  37.8251390   7.8774150  29.2228350  53.1944430   7.1091980  32.3351960
  52.9630520   6.8804730  31.4349910  53.4548980   8.0291530  32.2896850
  37.9456570   5.5516690  33.2279910  37.0512620   5.5183450  33.5673620
  38.4854120   5.7503480  33.9931160  36.5702720   5.4653960  20.7243480
  35.6666800   5.7284160  20.5495140  37.0543340   5.7365130  19.9443440
  53.0795770   6.1877950  26.0019680  53.6033250   5.6940600  25.3709850
  53.6655190   6.3228310  26.7467250  53.2585490   6.2717820  29.5239230
  52.3088200   6.2381360  29.6384220  53.4398500   7.1817930  29.2889000
  39.1129930   4.5219500  18.6337860  39.8221630   4.1002720  18.1485140
  38.3969870   4.5894730  18.0021210  52.5695740   5.4451300  21.9412090
  53.0654860   5.2122170  22.7260970  52.3711810   4.6063140  21.5249730
  53.9982900   4.0812250  24.4749770  53.8882180   3.9268290  25.4132040
  54.7590490   3.5533190  24.2325180  54.8873170   1.9120170  17.7155910
  55.8122480   1.7801350  17.5074200  54.8648960   1.9912990  18.6692360
  54.9611660   2.6830830  20.3412620  54.1663160   2.6175950  20.8705530
  55.1654940   3.6181470  20.3297970  51.9030080  16.7222380  24.3351010
  52.4989150  16.4006950  23.6585430  52.1608230  16.2494200  25.1264280
  39.8092650  13.1540290  34.4841640  39.7662280  12.7833200  35.3656100
  39.9403660  14.0917860  34.6243460  43.5098680  14.7099880  30.0851360
  43.2690040  14.9774440  29.1981880  44.4501320  14.8805610  30.1402220
  54.7702840  16.7294260  30.8862000  54.2761120  17.1263130  30.1689130
  54.1616130  16.1043470  31.2799280  39.6480680  16.1002540  31.6039420
  39.0541000  15.9687240  32.3429460  39.6404520  15.2640680  31.1381520
  52.4542290  17.3717680  28.1648740  51.9945260  18.1233490  27.7906760
  51.8254750  16.6524150  28.1063540  39.2792910  13.4660920  30.5547460
  38.5526970  12.8466210  30.4873410  39.3402060  13.8601530  29.6845540
  42.8838010  15.6805920  27.3396870  43.4003030  15.0693280  26.8145130
  43.5335390  16.1834700  27.8307880  45.6233510  16.5714410  28.1665850
  45.9111320  16.3168710  27.2898860  46.1356730  16.0191770  28.7571420
  37.5622910  16.7835310  23.7644220  37.3944950  16.1505990  24.4626110
  36.6957420  16.9894710  23.4138410  44.7264740   2.7291360  24.2578390
  43.9139250   2.3548250  23.9174270  45.2306380   1.9736440  24.5599580
  39.1685610  15.4768540  21.2094360  38.6433230  15.8576570  20.5056320
  39.0930190  16.1019310  21.9304070  45.6905870  17.4930510  35.5334050
  46.6173180  17.2574780  35.5770010  45.6756300  18.3202510  35.0520080
  53.9250930  17.0356080  22.5308300  54.1003120  16.3493820  21.8869220
  53.2272500  17.5603130  22.1384970  41.7678580  17.4250920  20.0843610
  42.4997400  17.1410200  19.5367500  42.0272250  17.1864200  20.9742990
  40.9293370  13.5415650  20.0889940  40.3002250  14.0100750  20.6375770
  41.0441200  12.6964870  20.5236130  52.2583430  16.7200370  35.3575090
  53.0508750  16.2249600  35.1501050  52.5516580  17.3990510  35.9650700
  48.3843090   7.5921310   6.2391140  48.3037140   6.6775920   5.9682850
  47.9707510   8.0888380   5.5330850  46.5161130   9.3700330   8.1200410
  45.7403230   8.8900770   8.4098980  47.1674060   8.6905980   7.9456570
  40.5326960   9.6820140   8.9976170  39.7011840   9.4268850   9.3972680
  41.1407940   9.7530910   9.7334090  50.5368560  13.7760520   6.8999540
  50.0750090  13.0047760   7.2286710  51.3494110  13.8026590   7.4051990
  40.5128220  13.7160230   9.1934190  40.8156260  12.8257970   9.0144410
  41.2571810  14.2730450   8.9656440  38.9418910   4.6422030   2.7818560
  38.0535610   4.9838000   2.6798440  39.2260100   4.4422350   1.8899390
  36.9051920   7.2427680   8.6658260  37.4768030   6.4749880   8.6661900
  36.9053460   7.5416440   7.7564870  46.7631870  16.0618530   6.5203530
  46.1443310  16.5176030   5.9497970  47.6183650  16.2169990   6.1193230
  45.9570120  12.0457520   8.1270570  45.8878400  11.1047460   7.9659700
  46.7189980  12.1358930   8.6993140  38.1476790   2.6512040  10.4527190
  37.9679630   1.7537790  10.7329950  37.7456870   3.1983910  11.1274140
  46.9875290   4.8527900   8.3539500  47.3640110   3.9799780   8.2413170
  46.8894800   5.1886600   7.4629940  41.1180300   3.2253530   3.8156940
  41.2247050   4.1257260   4.1225700  40.2072660   3.1771500   3.5251590
  50.7699410   2.3478340   5.2867840  51.5909030   1.8574910   5.3293320
  50.8033490   2.9376000   6.0399680  38.7663460   5.1472540   9.0609530
  39.4473570   5.4110910   9.6796930  38.4511510   4.3073410   9.3947540
  42.9588030   6.1939900   8.1482120  43.4666250   6.6920870   8.7887140
  43.4901270   5.4175100   7.9721480  55.0598960   4.3645090  11.8511470
  54.3551130   4.7526800  11.3326580  55.3256880   5.0595380  12.4532400
  47.6295220  10.9457770   3.9135440  47.0112490  11.4107220   3.3498160
  48.1418470  11.6385250   4.3304950  42.4926980  10.4733640  10.5919040
  42.1596360  11.1002560  11.2340110  42.6693660  10.9995520   9.8120710
  51.0060890   4.2878720   8.0595380  50.3016460   4.5763610   8.6398490
  51.3673050   5.0978830   7.6994940  40.9239460   2.5448420  10.4215990
  41.2656270   3.3890470  10.1269860  39.9855270   2.6932160  10.5381330
  41.7046080  12.4414440  12.4068220  42.3220080  13.1165520  12.1252670
  40.8439200  12.8502420  12.3155720  52.6223670  13.9053850  10.3222860
  51.9387190  14.5752960  10.3139530  53.1617960  14.1034500   9.5567720
  54.0747810   3.7333510   8.4504590  53.1272720   3.7672490   8.5820020
  54.3997800   4.5472460   8.8353950  50.1582410  15.7497980   9.0368040
  50.1709570  15.3460270   8.1690300  49.6057630  16.5245270   8.9329470
  51.4527830  12.4714200   4.1258210  51.3424160  11.5288530   4.2507630
  51.4496080  12.8329840   5.0120970  49.5567850  10.6527820  10.3650650
  49.9736640  10.4387930   9.5304110  50.2807670  10.9100610  10.9359270
  46.9948110   8.0979520   3.4820700  46.0677390   8.0316900   3.7109170
  47.1472930   9.0359650   3.3675940  53.5029950   9.0515040  10.4566890
  52.6748580   9.1208130   9.9817020  54.0980430   9.6369350   9.9882720
  51.0245400   9.6599820   3.9855950  50.4057820   9.3219370   3.3382250
  51.0069850   9.0159580   4.6935140  50.4671960   5.8384360  11.4021760
  50.0543140   6.6638070  11.6561750  49.7347910   5.2529400  11.2098120
  42.6004750   8.6244260   6.2640430  42.1961750   7.9121510   5.7686330
  42.6867870   8.2797500   7.1528470  43.0686450  12.3111820   8.4279640
  42.7714740  11.7057290   7.7487420  44.0186270  12.3489130   8.3169000
  41.3133370   5.3987470  10.0439470  41.8647960   5.5082810   9.2692720
  41.8276880   5.7725070  10.7594700  51.1572060  15.8843690  12.0902740
  50.6802620  16.6915880  11.8975350  50.4733850  15.2322020  12.2428950
  42.1604880  12.0493510  15.0787440  41.2633410  12.2733480  15.3260840
  42.1857750  12.1728450  14.1298840  40.9876100   8.9206830  13.6544810
  40.8483870   9.7929630  14.0232210  40.1057460   8.5779640  13.5092750
  47.3105480  13.8382700   4.9609940  47.7501390  14.5807030   4.5465330
  47.2492370  14.0809270   5.8848900  42.7856450  14.8628530  15.8629960
  42.7571880  15.2671480  14.9958390  42.6221420  13.9338890  15.7001560
  39.3009380   7.5189240   3.7647080  39.1806980   8.2451330   3.1528350
  38.9910270   6.7492150   3.2874990  54.7371270  15.6455630  17.1594130
  55.2130990  16.1238520  17.8383210  55.3578430  15.5773120  16.4339630
  36.9394750  10.6904380   9.5715720  37.0175170  10.8253150   8.6271440
  37.5536430   9.9820270   9.7643840  38.1842380  12.3904570   5.9821900
  37.7770460  12.5319160   5.1275500  39.0755390  12.1064730   5.7793110
  54.1404520  12.8368480  14.3194140  54.2667580  12.5980360  13.4011320
  54.1825900  12.0053020  14.7916220  48.0021260  16.5396480  12.8888950
  48.5165930  16.4504490  13.6911380  47.1590340  16.8856180  13.1816860
  49.9775660  16.8251820   2.3172950  49.8176800  16.5354760   3.2154780
  49.8122370  16.0491950   1.7818180  42.4564040  16.6050350   4.0944570
  42.2806520  15.6885890   3.8812370  41.6019780  16.9637640   4.3342370
  49.2451720  15.9602090   4.9519440  49.7008670  15.1791470   5.2658060
  49.5844240  16.6708910   5.4960620  53.9928530   4.8900940  15.2843880
  53.3772800   5.3980610  14.7559340  53.6724950   3.9899270  15.2269820
  36.9954270  11.7318550  12.1110180  37.1585310  11.2623910  11.2929550
  37.4606720  11.2242110  12.7759020  46.0542850   3.7292830  12.7506070
  45.5922220   3.9375850  13.5626010  45.6520960   2.9152180  12.4476740
  51.0547360   4.9501780  13.8802730  50.2040950   4.6507530  14.2011800
  50.8949150   5.1943790  12.9686550  48.1497070   6.4503530  15.9801520
  48.4750480   5.6167280  15.6403750  48.9377400   6.9732050  16.1279850
  41.5587260   5.9857880   4.8752000  41.3328180   5.7695050   5.7798620
  40.7779790   6.4186340   4.5297970  48.7885020   5.9921250   3.4742650
  48.1893910   6.7157050   3.2906270  49.3364630   5.9298030   2.6919100
  43.9986470   6.8843460  15.5412270  43.9030070   5.9438190  15.3912670
  44.8418450   7.1058530  15.1460340  47.3949890   4.6284790   5.5045930
  47.7879460   4.9456990   4.6914620  47.7566740   3.7496670   5.6190450
  39.1297010   3.2957130  13.6946050  38.7360400   4.1432340  13.9018830
  38.4415410   2.6583500  13.8854690  45.7042060   3.3792100  16.7642790
  45.0140380   3.1864300  17.3988880  46.4474360   3.6626740  17.2967090
  47.9805030   7.2190540   9.5996710  47.2486150   7.7277350   9.9486810
  47.5829370   6.4020520   9.2985490  44.4182420   3.8944740   8.0049200
  44.4218480   3.4534690   7.1553740  45.3133540   4.2162070   8.1121020
  40.2684800   3.7771230   6.9643410  39.9284850   4.2546460   7.7210460
  39.5062120   3.3236350   6.6044510  48.4430940   2.6724220   9.0119650
  48.4603680   3.1232870   9.8561500  48.1946520   1.7729860   9.2253090
  38.5693250  11.1069980  14.2705990  38.1848040  10.4663650  14.8688950
  38.8805440  11.8106100  14.8400720  44.7190390   7.9546520   9.7514610
  45.0860520   7.4805090  10.4975950  44.5295450   8.8288090  10.0922950
  37.5830880   2.6990210   5.8808080  37.2977800   2.3345880   6.7186700
  37.5209740   1.9670670   5.2671220  42.5089760   6.9955160  12.0698820
  42.2046830   7.8747140  12.2949180  43.4636220   7.0554950  12.1056260
  41.0371550  11.2016150   2.6665670  40.2633810  10.6613770   2.5064390
  41.7666180  10.6822760   2.3283430  51.7959530  10.1981510   8.4592060
  52.5158650  10.6936800   8.0688170  51.5941350   9.5199400   7.8145930
  47.1778330  10.2690570  14.3461060  47.1115640   9.3486240  14.0918650
  46.5483470  10.3666010  15.0605700  41.0808950  10.8696530   6.3044480
  41.5987620  10.0664790   6.2501370  40.6292970  10.8075670   7.1461310
  38.5653490   7.8357900  13.2170180  38.2068430   8.5011750  13.8043520
  38.2708050   7.0041450  13.5882800  41.7666610   8.2942140  16.1009730
  41.4666750   8.4399320  15.2037550  42.5377850   7.7347430  16.0083120
  47.1095060  13.0911140  14.0964860  47.1239600  12.1592100  13.8783770
  46.4020160  13.1770900  14.7354630  53.3206270   9.7318480  13.4433440
  52.5954460  10.3247260  13.2462830  53.8481730   9.7242020  12.6446810
  53.2719380  14.1293220   3.0945600  52.6295540  13.4748840   3.3689320
  52.8850040  14.5348310   2.3186270  48.8505860  11.4578650   6.9417290
  49.2029680  10.8606780   6.2818660  47.9668190  11.1322880   7.1125540
  44.9369140  12.2176340   4.3487700  45.6240270  12.7645550   4.7295290
  44.1501560  12.7617070   4.3837310  44.2396350   9.2222370   3.9613060
  44.6959130  10.0327620   4.1873250  43.8884560   8.9045510   4.7931550
  46.5428960  14.7328710  11.1905360  47.1871180  14.9388090  11.8678780
  46.9058400  13.9717110  10.7376210  47.8161040  12.7361060   9.9082810
  48.4583270  12.0354220  10.0214980  48.3410390  13.5159500   9.7279700
  49.5898660  13.5355960  13.1118870  49.9254900  14.1222650  13.7896790
  48.6699000  13.4048670  13.3416660  37.4274650  15.3131400  14.8808810
  37.5365770  14.3726140  14.7404200  36.7755210  15.5786150  14.2322540
  45.4187240  13.5847290  16.2806930  45.0984110  12.8656530  16.8252620
  44.7445600  14.2602360  16.3542990  48.6340840   3.8173450  11.6443730
  49.0021660   2.9968660  11.9723300  47.7739040   3.8775340  12.0599380
  52.0002870   2.7730390   2.4531290  51.3716030   2.8776060   1.7389520
  51.5054790   2.9927170   3.2425170  43.9686900   5.0516340   3.8689170
  43.2603050   5.5202680   4.3102780  44.2531380   4.3938350   4.5034360
  45.5942830   6.4713040  11.8681700  46.0928080   6.9458860  12.5333550
  45.7365780   5.5476560  12.0751730  48.0002330   1.7767000   5.3084960
  47.8770110   1.7953130   4.3594470  48.9486890   1.8245940   5.4283360
  45.0879120  17.0122300   4.5812940  45.3420620  16.9743690   3.6592310
  44.1391600  16.8855630   4.5741190  52.8009690   2.6881000  12.7110090
  52.2983290   3.4286400  13.0503900  53.6166350   3.0765000  12.3946880
  51.0931700   7.9314180   6.1571450  50.1521840   7.9464410   6.3319140
  51.4075770   7.1450140   6.6031750  53.0957280  15.1023030   7.8325710
  53.2204700  15.9254200   8.3049520  53.9622840  14.8913760   7.4849860
  40.5674810  17.1954240   7.5042840  41.3037290  16.6469700   7.7751410
  40.9515730  18.0610250   7.3648830  37.4520290  13.2627810   3.3784350
  36.5260070  13.5048950   3.3689760  37.9176720  14.0902070   3.2569100
  39.5733090  16.3800310  16.6928420  40.3745820  16.7012360  17.1063820
  39.0584910  16.0195890  17.4148330  48.4097720  12.4880180  16.6403830
  47.8035880  12.5111780  15.8999580  48.1051830  11.7563220  17.1771080
  49.8398090  16.2160470  15.2513240  50.7919840  16.1318490  15.2013480
  49.6926310  16.8802180  15.9247030  37.2930900   8.8673770  15.6364470
  37.7969920   8.2881050  16.2080700  36.5538320   9.1514000  16.1740840
  44.3468840  10.2744760  15.1699990  43.5814510  10.8429760  15.0854660
  44.5284800   9.9820970  14.2768220  51.4892190  12.0050090  15.7275010
  52.2301660  12.3425850  15.2242470  50.7264870  12.1742150  15.1744780
  39.3253980   7.0103360  16.5314540  39.3659320   6.7117230  17.4399770
  40.1799480   7.4110970  16.3722060  41.2659790   5.5895460  14.4989030
  40.7356250   5.0986410  13.8712370  41.9347860   6.0179660  13.9646960
  50.1637850  10.0564920  14.2630220  50.5778870  10.2110000  15.1120640
  49.2288850  10.1820140  14.4256000  50.6360020   7.3961080  16.2669370
  51.2180790   6.6413400  16.1789850  50.8121790   7.9268520  15.4900850
  41.7532090   2.5557830  14.5786320  41.6588960   1.9378580  13.8537190
  41.1729480   3.2824120  14.3516230  44.9253080  10.0085400  12.2326150
  45.3441190  10.8518130  12.0602390  44.0061710  10.1457440  12.0032930
  47.2616980   7.7401580  13.6163990  47.3813190   7.1442720  14.3558830
  48.1210980   7.7771270  13.1965290  49.6004880   8.2938770  12.1926500
  49.0740100   8.8181390  11.5891640  49.9436220   8.9266160  12.8236230
  42.7760500  16.3138410  13.3483880  42.2381590  17.0384470  13.0292580
  43.0294460  15.8368750  12.5581220  44.0285750   4.2822930  14.8739810
  44.6185440   3.9738780  15.5617630  43.2105990   3.8102680  15.0299710
  48.8479180   3.8988740  15.1072830  48.1594700   3.2370280  15.0422820
  49.5685200   3.4527010  15.5521290  45.6322710  17.5489620  13.6070530
  45.5581410  18.4524760  13.9142900  44.7301550  17.2301520  13.5792600
  37.0350000  14.8764210   6.9104150  37.3653010  14.0085270   6.6782790
  37.4641000  15.0822730   7.7409110  41.6311920  13.2073220   4.5706120
  41.3307460  13.0838190   5.4710030  41.5249410  12.3481810   4.1621850
  37.5240210  15.7434800   9.6485780  37.0871200  15.9235600  10.4809930
  38.0917890  16.5009420   9.5067500  53.1602390  15.2451800  13.9363090
  52.5604380  15.3044360  13.1927010  53.2896290  14.3056780  14.0659940
  53.8560300   9.7317100   1.7767000  54.6179210  10.3013750   1.8826690
  53.8714670   9.1644300   2.5475310  37.3564640   8.2555030   6.0074660
  36.7013480   7.9866670   5.3634360  38.1942590   8.1459510   5.5576640
  54.8620270  10.5867200   6.6208930  55.2329100   9.8034520   6.2144900
  55.5022200  11.2756300   6.4426230  51.8454030  11.9703780  12.0339250
  51.0313870  12.4000940  12.2965040  52.2528230  12.5822190  11.4208300
  53.8044810   7.9620460   3.9268950  53.4288410   7.1948390   3.4950240
  53.0747930   8.3443160   4.4143880  38.3940570   8.6407600  10.5478000
  38.7613610   8.5535000  11.4274020  37.8251390   7.8774150  10.4484860
  53.1944430   7.1091980  13.5608470  52.9630520   6.8804730  12.6606420
  53.4548980   8.0291530  13.5153360  37.9456570   5.5516690  14.4536420
  37.0512620   5.5183450  14.7930130  38.4854120   5.7503480  15.2187670
  53.0795770   6.1877950   7.2276190  53.6033250   5.6940600   6.5966360
  53.6655190   6.3228310   7.9723760  53.2585490   6.2717820  10.7495740
  52.3088200   6.2381360  10.8640730  53.4398500   7.1817930  10.5145510
  52.5695740   5.4451300   3.1668600  53.0654860   5.2122170   3.9517480
  52.3711810   4.6063140   2.7506240  53.9982900   4.0812250   5.7006280
  53.8882180   3.9268290   6.6388550  54.7590490   3.5533190   5.4581690
  51.9030080  16.7222380   5.5607520  52.4989150  16.4006950   4.8841940
  52.1608230  16.2494200   6.3520790  39.8092650  13.1540290  15.7098150
  39.7662280  12.7833200  16.5912610  39.9403660  14.0917860  15.8499970
  43.5098680  14.7099880  11.3107870  43.2690040  14.9774440  10.4238390
  44.4501320  14.8805610  11.3658730  54.7702840  16.7294260  12.1118510
  54.2761120  17.1263130  11.3945640  54.1616130  16.1043470  12.5055790
  39.6480680  16.1002540  12.8295930  39.0541000  15.9687240  13.5685970
  39.6404520  15.2640680  12.3638030  52.4542290  17.3717680   9.3905250
  51.9945260  18.1233490   9.0163270  51.8254750  16.6524150   9.3320050
  39.2792910  13.4660920  11.7803970  38.5526970  12.8466210  11.7129920
  39.3402060  13.8601530  10.9102050  42.8838010  15.6805920   8.5653380
  43.4003030  15.0693280   8.0401640  43.5335390  16.1834700   9.0564390
  45.6233510  16.5714410   9.3922360  45.9111320  16.3168710   8.5155370
  46.1356730  16.0191770   9.9827930  37.5622910  16.7835310   4.9900730
  37.3944950  16.1505990   5.6882620  36.6957420  16.9894710   4.6394920
  44.7264740   2.7291360   5.4834900  43.9139250   2.3548250   5.1430780
  45.2306380   1.9736440   5.7856090  39.1685610  15.4768540   2.4350870
  38.6433230  15.8576570   1.7312830  39.0930190  16.1019310   3.1560580
  45.6905870  17.4930510  16.7590560  46.6173180  17.2574780  16.8026520
  45.6756300  18.3202510  16.2776590  53.9250930  17.0356080   3.7564810
  54.1003120  16.3493820   3.1125730  53.2272500  17.5603130   3.3641480
  52.2583430  16.7200370  16.5831600  53.0508750  16.2249600  16.3757560
  52.5516580  17.3990510  17.1907210  29.6099600  63.9151780  62.5621610
  29.5293650  63.0006390  62.2913320  29.1964020  64.4118850  61.8561320
  27.7417640  65.6930800  64.4430880  26.9659740  65.2131240  64.7329450
  28.3930570  65.0136450  64.2687040  21.7583470  66.0050610  65.3206640
  20.9268350  65.7499320  65.7203150  22.3664450  66.0761380  66.0564560
  31.7625070  70.0990990  63.2230010  31.3006600  69.3278230  63.5517180
  32.5750620  70.1257060  63.7282460  21.7384730  70.0390700  65.5164660
  22.0412770  69.1488440  65.3374880  22.4828320  70.5960920  65.2886910
  20.1675420  60.9652500  59.1049030  19.2792120  61.3068470  59.0028910
  20.4516610  60.7652820  58.2129860  18.1308430  63.5658150  64.9888730
  18.7024540  62.7980350  64.9892370  18.1309970  63.8646910  64.0795340
  27.1826630  68.3687990  64.4501040  27.1134910  67.4277930  64.2890170
  27.9446490  68.4589400  65.0223610  19.3733300  58.9742510  66.7757660
  19.1936140  58.0768260  67.0560420  18.9713380  59.5214380  67.4504610
  28.2131800  61.1758370  64.6769970  28.5896620  60.3030250  64.5643640
  28.1151310  61.5117070  63.7860410  22.3436810  59.5484000  60.1387410
  22.4503560  60.4487730  60.4456170  21.4329170  59.5001970  59.8482060
  31.9955920  58.6708810  61.6098310  32.8165540  58.1805380  61.6523790
  32.0290000  59.2606470  62.3630150  19.9919970  61.4703010  65.3840000
  20.6730080  61.7341380  66.0027400  19.6768020  60.6303880  65.7178010
  24.1844540  62.5170370  64.4712590  24.6922760  63.0151340  65.1117610
  24.7157780  61.7405570  64.2951950  36.2855470  60.6875560  68.1741940
  35.5807640  61.0757270  67.6557050  36.5513390  61.3825850  68.7762870
  22.4680640  57.1568930  68.7376010  22.4699080  57.6741320  67.9321910
  21.6384950  56.6799110  68.7145940  28.8551730  67.2688240  60.2365910
  28.2369000  67.7337690  59.6728630  29.3674980  67.9615720  60.6535420
  23.7183490  66.7964110  66.9149510  23.3852870  67.4233030  67.5570580
  23.8950170  67.3225990  66.1351180  32.2317400  60.6109190  64.3825850
  31.5272970  60.8994080  64.9628960  32.5929560  61.4209300  64.0225410
  22.1495970  58.8678890  66.7446460  22.4912780  59.7120940  66.4500330
  21.2111780  59.0162630  66.8611800  22.9302590  68.7644910  68.7298690
  23.5476590  69.4395990  68.4483140  22.0695710  69.1732890  68.6386190
  18.2234930  67.9544770  57.6105540  17.8462910  68.4431870  56.8790440
  18.4808000  68.6270050  58.2412070  33.8480180  70.2284320  66.6453330
  33.1643700  70.8983430  66.6370000  34.3874470  70.4264970  65.8798190
  35.3004320  60.0563980  64.7735060  34.3529230  60.0902960  64.9050490
  35.6254310  60.8702930  65.1584420  25.8323860  56.3561160  63.0691050
  26.1398840  55.8008050  62.3526550  24.9024560  56.4905620  62.8864040
  32.6784340  68.7944670  60.4488680  32.5680670  67.8519000  60.5738100
  32.6752590  69.1560310  61.3351440  30.7824360  66.9758290  66.6881120
  31.1993150  66.7618400  65.8534580  31.5064180  67.2331080  67.2589740
  28.2204620  64.4209990  59.8051170  27.2933900  64.3547370  60.0339640
  28.3729440  65.3590120  59.6906410  28.2073700  60.6926990  56.8018330
  27.2677370  60.8540950  56.8870790  28.5256960  61.4112670  56.2554320
  34.7286460  65.3745510  66.7797360  33.9005090  65.4438600  66.3047490
  35.3236940  65.9599820  66.3113190  32.2501910  65.9830290  60.3086420
  31.6314330  65.6449840  59.6612720  32.2326360  65.3390050  61.0165610
  31.6928470  62.1614830  67.7252230  31.2799650  62.9868540  67.9792220
  30.9604420  61.5759870  67.5328590  23.8261260  64.9474730  62.5870900
  23.4218260  64.2351980  62.0916800  23.9124380  64.6027970  63.4758940
  24.2942960  68.6342290  64.7510110  23.9971250  68.0287760  64.0717890
  25.2442780  68.6719600  64.6399470  22.5389880  61.7217940  66.3669940
  23.0904470  61.8313280  65.5923190  23.0533390  62.0955540  67.0825170
  30.4266610  65.2217100  57.3159170  30.8659890  64.3839530  57.1696990
  31.1395030  65.8546500  57.4023310  28.5361990  70.1613170  61.2840410
  28.9757900  70.9037500  60.8695800  28.4748880  70.4039740  62.2079370
  34.0083750  56.4759910  55.6300210  33.6956410  56.5686740  56.5299280
  34.7696220  57.0540940  55.5797640  20.5265890  63.8419710  60.0877550
  20.4063490  64.5681800  59.4758820  20.2166780  63.0722620  59.6105460
  18.1651260  67.0134850  65.8946190  18.2431680  67.1483620  64.9501910
  18.7792940  66.3050740  66.0874310  19.4098890  68.7135040  62.3052370
  19.0026970  68.8549630  61.4505970  20.3011900  68.4295200  62.1023580
  30.9058300  70.6569850  57.2001420  30.2123460  70.6547140  56.5403700
  31.6481160  70.2329170  56.7695590  18.2210780  68.0549020  68.4340650
  18.3841820  67.5854380  67.6160020  18.6863230  67.5472580  69.0989490
  22.9929550  57.1854780  63.4701220  22.5497700  57.9664320  63.1385740
  23.5514540  57.5084670  64.1772160  27.2799360  60.0523300  69.0736540
  26.8178730  60.2606320  69.8856480  26.8777470  59.2382650  68.7707210
  26.1088370  56.8065480  58.3507050  25.4842550  56.8025350  59.0760360
  26.0218490  55.9396440  57.9543020  25.0305450  57.7302110  65.3290820
  25.3277780  58.6364940  65.2482840  25.5791010  57.2420890  64.7150390
  22.7843770  62.3088350  61.1982470  22.5584690  62.0925520  62.1029090
  22.0036300  62.7416810  60.8528440  30.0141530  62.3151720  59.7973120
  29.4150420  63.0387520  59.6136740  30.5621140  62.2528500  59.0149570
  28.6206400  60.9515260  61.8276400  29.0135970  61.2687460  61.0145090
  28.9823250  60.0727140  61.9420920  20.3553520  59.6187600  70.0176520
  19.9616910  60.4662810  70.2249300  19.6671920  58.9813970  70.2085160
  17.6570570  57.5416060  64.0506600  17.3683620  58.1118920  64.7631580
  18.4016330  57.0620510  64.4137830  17.8440800  61.4836180  55.2609320
  17.7615470  62.4266940  55.4024310  17.4923860  61.3411090  54.3821670
  29.2061540  63.5421010  65.9227180  28.4742660  64.0507820  66.2717280
  28.8085880  62.7250990  65.6215960  25.6438930  60.2175210  64.3279670
  25.6474990  59.7765160  63.4784210  26.5390050  60.5392540  64.4351490
  21.4941310  60.1001700  63.2873880  21.1541360  60.5776930  64.0440930
  20.7318630  59.6466820  62.9274980  25.7059080  61.2187290  57.3186430
  25.8271900  61.1773770  58.2672250  25.3207590  62.0811440  57.1633160
  29.6687450  58.9954690  65.3350120  29.6860190  59.4463340  66.1791970
  29.4203030  58.0960330  65.5483560  24.7180580  63.5288430  56.7169730
  24.1497480  63.0806680  56.0905640  25.4269580  63.8881210  56.1834880
  25.9446900  64.2776990  66.0745080  26.3117030  63.8035560  66.8206420
  25.7551960  65.1518560  66.4153420  18.8087390  59.0220680  62.2038550
  18.5234310  58.6576350  63.0417170  18.7466250  58.2901140  61.5901690
  23.7346270  63.3185630  68.3929290  23.4303340  64.1977610  68.6179650
  24.6892730  63.3785420  68.4286730  22.2628060  67.5246620  58.9896140
  21.4890320  66.9844240  58.8294860  22.9922690  67.0053230  58.6513900
  33.0216040  66.5211980  64.7822530  33.7415160  67.0167270  64.3918640
  32.8197860  65.8429870  64.1376400  28.4825980  57.9149940  58.9251920
  27.6690590  57.4163110  58.8497230  28.2887930  58.7548190  58.5088270
  31.1974370  62.2869590  57.2214080  32.0853990  62.5986820  57.0465420
  31.1679460  61.4141840  56.8294660  22.3065460  67.1927000  62.6274950
  22.8244130  66.3895260  62.5731840  21.8549480  67.1306140  63.4691780
  27.1934960  68.4593280  57.9002250  27.5350660  69.2035510  57.4045570
  26.3647670  68.7724400  58.2627080  19.7910000  64.1588370  69.5400650
  19.4324940  64.8242220  70.1273990  19.4964560  63.3271920  69.9113270
  33.4688640  63.5981430  56.6893940  33.3852360  64.0295650  55.8390380
  34.1882830  64.0579780  57.1220760  34.5462780  66.0548950  69.7663910
  33.8210970  66.6477730  69.5693300  35.0738240  66.0472490  68.9677280
  34.4975890  70.4523690  59.4176070  33.8552050  69.7979310  59.6919790
  34.1106550  70.8578780  58.6416740  30.0762370  67.7809120  63.2647760
  30.4286190  67.1837250  62.6049130  29.1924700  67.4553350  63.4356010
  26.1625650  68.5406810  60.6718170  26.8496780  69.0876020  61.0525760
  25.3758070  69.0847540  60.7067780  18.3018050  64.1579630  56.1635250
  19.1712900  64.4404430  56.4471170  17.8108370  64.9715500  56.0484060
  25.4652860  65.5452840  60.2843530  25.9215640  66.3558090  60.5103720
  25.1141070  65.2275980  61.1162020  27.7685470  71.0559180  67.5135830
  28.4127690  71.2618560  68.1909250  28.1314910  70.2947580  67.0606680
  21.3664640  55.8890490  60.7566050  21.2379270  55.8808390  61.7050970
  20.5426660  56.2273580  60.4057060  29.0417550  69.0591530  66.2313280
  29.6839780  68.3584690  66.3445450  29.5666900  69.8389970  66.0510170
  32.8873270  69.3440150  55.9552420  32.6610850  68.6270590  56.5477060
  32.4969470  69.0952590  55.1174170  30.8155170  69.8586430  69.4349340
  31.1511410  70.4453120  70.1127260  29.8955510  69.7279140  69.6647130
  32.4689520  67.2612090  57.6166580  32.1811220  67.7224780  58.4044460
  33.2641690  66.8009860  57.8850800  24.6857920  70.7538210  57.5470550
  24.6768020  71.4867900  56.9315060  23.7656280  70.5069790  57.6397510
  20.2864560  65.9753100  58.2917310  19.6792510  66.7152000  58.3012610
  20.7613910  66.0652460  57.4655510  29.8597350  60.1403920  67.9674200
  30.2278170  59.3199130  68.2953770  28.9995550  60.2005810  68.3829850
  33.2259380  59.0960860  58.7761760  32.5972540  59.2006530  58.0619990
  32.7311300  59.3157640  59.5655640  27.6717520  70.8166450  56.2095740
  27.7729500  70.6130440  55.2797720  26.7719260  70.5624730  56.4143520
  25.1943410  61.3746810  60.1919640  24.4859560  61.8433150  60.6333250
  25.4787890  60.7168820  60.8264830  26.8199340  62.7943510  68.1912170
  27.3184590  63.2689330  68.8564020  26.9622290  61.8707030  68.3982200
  29.2258840  58.0997470  61.6315430  29.1026620  58.1183600  60.6824940
  30.1743400  58.1476410  61.7513830  23.3978430  59.6831890  57.5670350
  24.2468960  60.1202040  57.5010540  23.0309700  59.9952150  58.3942410
  34.0266200  59.0111470  69.0340560  33.5239800  59.7516870  69.3734370
  34.8422860  59.3995470  68.7177350  32.3188210  64.2544650  62.4801920
  31.3778350  64.2694880  62.6549610  32.6332280  63.4680610  62.9262220
  22.2969850  65.9364250  56.0405880  23.0633120  65.8245610  56.6031310
  22.3744540  65.2402220  55.3882650  20.9916610  63.3689320  56.7238770
  21.0720200  62.4216830  56.8356170  21.8836360  63.6996200  56.8299430
  18.6776800  69.5858280  59.7014820  17.7516580  69.8279420  59.6920230
  19.1433230  70.4132540  59.5799570  25.4211030  67.9118430  55.5141230
  25.3161670  67.2970780  56.2402610  25.2535250  67.3884320  54.7304240
  28.6613760  66.9738460  56.1183220  28.1123860  67.4207760  56.7625960
  29.2833020  66.4687710  56.6420890  24.3288880  65.9329380  58.0148520
  24.7505300  65.7669250  58.8579910  24.4539720  65.1229610  57.5203660
  26.8416520  64.9566990  55.2625620  27.3622180  64.2416010  54.8966770
  27.4884920  65.5952860  55.5626130  25.7450040  57.4361540  67.9344180
  25.2967340  57.4585800  67.0889730  25.1115240  57.0380560  68.5314480
  26.1509590  66.3315870  68.5556620  26.5697700  67.1748600  68.3832860
  25.2318220  66.4687910  68.3263400  30.8261390  64.6169240  68.5156970
  30.2996610  65.1411860  67.9122110  31.1692730  65.2496630  69.1466700
  23.2247780  62.0062610  54.9606680  23.0236840  61.1429970  55.3220020
  23.0539830  61.9195970  54.0228280  30.7036090  56.8170840  57.4893560
  30.9838380  55.9738740  57.8452980  29.9301820  57.0493950  58.0032310
  22.0230580  59.1063230  54.9484560  22.3256480  59.1130660  54.0403710
  22.7625170  58.7561090  55.4452220  25.2415510  58.0497850  55.9340760
  24.8937510  57.3721840  55.3543210  25.4428280  57.5887360  56.7484150
  21.0460710  68.4105650  55.7814360  21.4835580  68.9535320  56.4371940
  21.5308440  67.5852600  55.7910700  18.2606510  71.1994680  63.2334620
  18.5909520  70.3315740  63.0013260  18.6897510  71.4053200  64.0639580
  22.8568430  69.5303690  60.8936590  22.5563970  69.4068660  61.7940500
  22.7505920  68.6712280  60.4852320  35.6260350  69.3100090  55.5963270
  34.7953310  69.3776740  56.0670500  35.8032180  70.2004210  55.2930130
  35.0816810  66.0547570  58.0997470  35.8435720  66.6244220  58.2057160
  35.0971180  65.4874770  58.8705780  18.5821150  64.5785500  62.3305130
  17.9269990  64.3097140  61.6864830  19.4199100  64.4689980  61.8807110
  36.0876780  66.9097670  62.9439400  36.4585610  66.1264990  62.5375370
  36.7278710  67.5986770  62.7656700  33.0710540  68.2934250  68.3569720
  32.2570380  68.7231410  68.6195510  33.4784740  68.9052660  67.7438770
  35.1335980  66.3481940  55.2569990  35.4084820  67.2560820  55.1289210
  34.9446720  66.2844470  56.1931980  31.5311590  59.3726790  56.5523620
  31.9496470  59.1857770  55.7120280  31.2247650  58.5205840  56.8626550
  35.0301320  64.2850930  60.2499420  34.6544920  63.5178860  59.8180710
  34.3004440  64.6673630  60.7374350  19.6197080  64.9638070  66.8708470
  19.9870120  64.8765470  67.7504490  19.0507900  64.2004620  66.7715330
  34.4200940  63.4322450  69.8838940  34.1887030  63.2035200  68.9836890
  34.6805490  64.3522000  69.8383830  17.7959230  61.7884430  58.2730460
  16.8923310  62.0514630  58.0982120  18.2799850  62.0595600  57.4930420
  34.3052280  62.5108420  63.5506660  34.8289760  62.0171070  62.9196830
  34.8911700  62.6458780  64.2954230  34.4842000  62.5948290  67.0726210
  33.5344710  62.5611830  67.1871200  34.6655010  63.5048400  66.8375980
  20.3386440  60.8449970  56.1824840  21.0478140  60.4233190  55.6972120
  19.6226380  60.9125200  55.5508190  19.9860600  56.8989300  55.2227490
  20.7088730  57.4398240  55.5408710  20.2585120  56.6252720  54.3469030
  33.7952250  61.7681770  59.4899070  34.2911370  61.5352640  60.2747950
  33.5968320  60.9293610  59.0736710  19.6752790  56.1495490  65.1250110
  20.3228980  55.5992870  64.6845270  20.0954630  56.4038640  65.9465920
  35.2239410  60.4042720  62.0236750  35.1138690  60.2498760  62.9619020
  35.9847000  59.8763660  61.7812160  33.5705130  56.3436850  68.4819750
  34.2077350  56.9570990  68.8478940  33.7180020  56.3797510  67.5368980
  36.1129680  58.2350640  55.2642890  37.0378990  58.1031820  55.0561180
  36.0905470  58.3143460  56.2179340  36.1868170  59.0061300  57.8899600
  35.3919670  58.9406420  58.4192510  36.3911450  59.9411940  57.8784950
  19.4284790  56.3051160  67.8675430  19.0799610  56.7614980  68.6333610
  19.0972490  55.4108290  67.9497860  24.7355190  71.0330350  67.6338340
  24.4946550  71.3004910  66.7468860  25.6757830  71.2036080  67.6889200
  30.3192210  55.7165240  67.3556430  29.4452050  56.0500350  67.1529360
  30.2102960  55.2438420  68.1808300  31.2264190  57.9236110  68.7398150
  30.8977550  57.1087870  68.3599880  32.1746490  57.8805920  68.6163840
  20.5049420  69.7891390  68.1034440  19.7783480  69.1696680  68.0360390
  20.5658570  70.1832000  67.2332520  28.0667030  56.6335080  66.2949340
  27.2838820  57.1080580  66.5746100  27.7729960  55.7289910  66.1862520
  32.6188100  57.3358180  64.3398430  33.0596190  57.2803280  63.4920030
  32.3495690  58.2516190  64.4108610  34.4826670  56.9673420  62.3507250
  34.4215070  56.0234640  62.2038270  35.2618700  57.0753510  62.8960710
  19.4107440  56.9382560  58.8163060  20.1686800  57.0511440  58.2427090
  18.9484610  57.7751760  58.7706490  25.9521250  59.0521830  61.8065370
  25.1395760  58.6778720  61.4661250  26.4562890  58.2966910  62.1086560
  30.4546230  55.7164280  63.0448440  31.0575600  56.2884490  63.5196960
  29.7139220  56.2803720  62.8222340  33.5980830  56.1185840  58.3188720
  33.7931460  57.0169290  58.5856150  32.8110700  55.8872920  58.8121670
  21.7832590  57.4646610  57.3565030  22.3125350  56.6776410  57.2272980
  22.4160910  58.1437800  57.5900560  23.9770430  57.2021750  60.4110420
  23.3473170  56.5009060  60.5780550  23.4375570  57.9625880  60.1943580
  22.1549880  69.8646120  57.6376920  21.5258760  70.3331220  58.1862750
  22.2697710  69.0195340  58.0723110  29.6099600  63.9151780  43.7878120
  29.5293650  63.0006390  43.5169830  29.1964020  64.4118850  43.0817830
  27.7417640  65.6930800  45.6687390  26.9659740  65.2131240  45.9585960
  28.3930570  65.0136450  45.4943550  21.7583470  66.0050610  46.5463150
  20.9268350  65.7499320  46.9459660  22.3664450  66.0761380  47.2821070
  31.7625070  70.0990990  44.4486520  31.3006600  69.3278230  44.7773690
  32.5750620  70.1257060  44.9538970  21.7384730  70.0390700  46.7421170
  22.0412770  69.1488440  46.5631390  22.4828320  70.5960920  46.5143420
  20.1675420  60.9652500  40.3305540  19.2792120  61.3068470  40.2285420
  20.4516610  60.7652820  39.4386370  18.1308430  63.5658150  46.2145240
  18.7024540  62.7980350  46.2148880  18.1309970  63.8646910  45.3051850
  27.1826630  68.3687990  45.6757550  27.1134910  67.4277930  45.5146680
  27.9446490  68.4589400  46.2480120  19.3733300  58.9742510  48.0014170
  19.1936140  58.0768260  48.2816930  18.9713380  59.5214380  48.6761120
  28.2131800  61.1758370  45.9026480  28.5896620  60.3030250  45.7900150
  28.1151310  61.5117070  45.0116920  22.3436810  59.5484000  41.3643920
  22.4503560  60.4487730  41.6712680  21.4329170  59.5001970  41.0738570
  31.9955920  58.6708810  42.8354820  32.8165540  58.1805380  42.8780300
  32.0290000  59.2606470  43.5886660  19.9919970  61.4703010  46.6096510
  20.6730080  61.7341380  47.2283910  19.6768020  60.6303880  46.9434520
  24.1844540  62.5170370  45.6969100  24.6922760  63.0151340  46.3374120
  24.7157780  61.7405570  45.5208460  36.2855470  60.6875560  49.3998450
  35.5807640  61.0757270  48.8813560  36.5513390  61.3825850  50.0019380
  22.4680640  57.1568930  49.9632520  22.4699080  57.6741320  49.1578420
  21.6384950  56.6799110  49.9402450  28.8551730  67.2688240  41.4622420
  28.2369000  67.7337690  40.8985140  29.3674980  67.9615720  41.8791930
  23.7183490  66.7964110  48.1406020  23.3852870  67.4233030  48.7827090
  23.8950170  67.3225990  47.3607690  32.2317400  60.6109190  45.6082360
  31.5272970  60.8994080  46.1885470  32.5929560  61.4209300  45.2481920
  22.1495970  58.8678890  47.9702970  22.4912780  59.7120940  47.6756840
  21.2111780  59.0162630  48.0868310  22.9302590  68.7644910  49.9555200
  23.5476590  69.4395990  49.6739650  22.0695710  69.1732890  49.8642700
  18.2234930  67.9544770  38.8362050  17.8462910  68.4431870  38.1046950
  18.4808000  68.6270050  39.4668580  33.8480180  70.2284320  47.8709840
  33.1643700  70.8983430  47.8626510  34.3874470  70.4264970  47.1054700
  35.3004320  60.0563980  45.9991570  34.3529230  60.0902960  46.1307000
  35.6254310  60.8702930  46.3840930  25.8323860  56.3561160  44.2947560
  26.1398840  55.8008050  43.5783060  24.9024560  56.4905620  44.1120550
  32.6784340  68.7944670  41.6745190  32.5680670  67.8519000  41.7994610
  32.6752590  69.1560310  42.5607950  30.7824360  66.9758290  47.9137630
  31.1993150  66.7618400  47.0791090  31.5064180  67.2331080  48.4846250
  28.2204620  64.4209990  41.0307680  27.2933900  64.3547370  41.2596150
  28.3729440  65.3590120  40.9162920  28.2073700  60.6926990  38.0274840
  27.2677370  60.8540950  38.1127300  28.5256960  61.4112670  37.4810830
  34.7286460  65.3745510  48.0053870  33.9005090  65.4438600  47.5304000
  35.3236940  65.9599820  47.5369700  32.2501910  65.9830290  41.5342930
  31.6314330  65.6449840  40.8869230  32.2326360  65.3390050  42.2422120
  31.6928470  62.1614830  48.9508740  31.2799650  62.9868540  49.2048730
  30.9604420  61.5759870  48.7585100  23.8261260  64.9474730  43.8127410
  23.4218260  64.2351980  43.3173310  23.9124380  64.6027970  44.7015450
  24.2942960  68.6342290  45.9766620  23.9971250  68.0287760  45.2974400
  25.2442780  68.6719600  45.8655980  22.5389880  61.7217940  47.5926450
  23.0904470  61.8313280  46.8179700  23.0533390  62.0955540  48.3081680
  23.3861390  68.3723980  52.6274420  22.4889920  68.5963950  52.8747820
  23.4114260  68.4958920  51.6785820  30.4266610  65.2217100  38.5415680
  30.8659890  64.3839530  38.3953500  31.1395030  65.8546500  38.6279820
  22.2132610  65.2437300  51.2031790  22.0740380  66.1160100  51.5719190
  21.3313970  64.9010110  51.0579730  28.5361990  70.1613170  42.5096920
  28.9757900  70.9037500  42.0952310  28.4748880  70.4039740  43.4335880
  34.0083750  56.4759910  36.8556720  33.6956410  56.5686740  37.7555790
  34.7696220  57.0540940  36.8054150  20.5265890  63.8419710  41.3134060
  20.4063490  64.5681800  40.7015330  20.2166780  63.0722620  40.8361970
  18.1651260  67.0134850  47.1202700  18.2431680  67.1483620  46.1758420
  18.7792940  66.3050740  47.3130820  19.4098890  68.7135040  43.5308880
  19.0026970  68.8549630  42.6762480  20.3011900  68.4295200  43.3280090
  35.3661030  69.1598950  51.8681120  35.4924090  68.9210830  50.9498300
  35.4082410  68.3283490  52.3403200  30.9058300  70.6569850  38.4257930
  30.2123460  70.6547140  37.7660210  31.6481160  70.2329170  37.9952100
  35.2185040  61.2131410  52.8330860  34.6029310  61.7211080  52.3046320
  34.8981460  60.3129740  52.7756800  18.2210780  68.0549020  49.6597160
  18.3841820  67.5854380  48.8416530  18.6863230  67.5472580  50.3246000
  22.9929550  57.1854780  44.6957730  22.5497700  57.9664320  44.3642250
  23.5514540  57.5084670  45.4028670  27.2799360  60.0523300  50.2993050
  26.8178730  60.2606320  51.1112990  26.8777470  59.2382650  49.9963720
  32.2803870  61.2732250  51.4289710  31.4297460  60.9738000  51.7498780
  32.1205660  61.5174260  50.5173530  29.3753580  62.7734000  53.5288500
  29.7006990  61.9397750  53.1890730  30.1633910  63.2962520  53.6766830
  26.1088370  56.8065480  39.5763560  25.4842550  56.8025350  40.3016870
  26.0218490  55.9396440  39.1799530  25.0305450  57.7302110  46.5547330
  25.3277780  58.6364940  46.4739350  25.5791010  57.2420890  45.9406900
  22.7843770  62.3088350  42.4238980  22.5584690  62.0925520  43.3285600
  22.0036300  62.7416810  42.0784950  30.0141530  62.3151720  41.0229630
  29.4150420  63.0387520  40.8393250  30.5621140  62.2528500  40.2406080
  25.2242980  63.2073930  53.0899250  25.1286580  62.2668660  52.9399650
  26.0674960  63.4289000  52.6947320  28.6206400  60.9515260  43.0532910
  29.0135970  61.2687460  42.2401600  28.9823250  60.0727140  43.1677430
  20.3553520  59.6187600  51.2433030  19.9616910  60.4662810  51.4505810
  19.6671920  58.9813970  51.4341670  26.9298570  59.7022570  54.3129770
  26.2396890  59.5094770  54.9475860  27.6730870  59.9857210  54.8454070
  17.6570570  57.5416060  45.2763110  17.3683620  58.1118920  45.9888090
  18.4016330  57.0620510  45.6394340  17.8440800  61.4836180  36.4865830
  17.7615470  62.4266940  36.6280820  17.4923860  61.3411090  35.6078180
  29.2061540  63.5421010  47.1483690  28.4742660  64.0507820  47.4973790
  28.8085880  62.7250990  46.8472470  25.6438930  60.2175210  45.5536180
  25.6474990  59.7765160  44.7040720  26.5390050  60.5392540  45.6608000
  21.4941310  60.1001700  44.5130390  21.1541360  60.5776930  45.2697440
  20.7318630  59.6466820  44.1531490  25.7059080  61.2187290  38.5442940
  25.8271900  61.1773770  39.4928760  25.3207590  62.0811440  38.3889670
  29.6687450  58.9954690  46.5606630  29.6860190  59.4463340  47.4048480
  29.4203030  58.0960330  46.7740070  24.7180580  63.5288430  37.9426240
  24.1497480  63.0806680  37.3162150  25.4269580  63.8881210  37.4091390
  33.0958200  56.4086870  52.3993010  33.4203970  55.6776530  52.9250990
  33.1314710  56.0900510  51.4974000  19.7949760  67.4300450  51.8192970
  19.4104550  66.7894120  52.4175930  20.1061950  68.1336570  52.3887700
  25.9446900  64.2776990  47.3001590  26.3117030  63.8035560  48.0462930
  25.7551960  65.1518560  47.6409930  18.8087390  59.0220680  43.4295060
  18.5234310  58.6576350  44.2673680  18.7466250  58.2901140  42.8158200
  23.7346270  63.3185630  49.6185800  23.4303340  64.1977610  49.8436160
  24.6892730  63.3785420  49.6543240  22.2628060  67.5246620  40.2152650
  21.4890320  66.9844240  40.0551370  22.9922690  67.0053230  39.8770410
  33.0216040  66.5211980  46.0079040  33.7415160  67.0167270  45.6175150
  32.8197860  65.8429870  45.3632910  28.4825980  57.9149940  40.1508430
  27.6690590  57.4163110  40.0753740  28.2887930  58.7548190  39.7344780
  28.4034840  66.5921040  51.8948040  28.3372150  65.6716710  51.6405630
  27.7739980  66.6896480  52.6092680  31.1974370  62.2869590  38.4470590
  32.0853990  62.5986820  38.2721930  31.1679460  61.4141840  38.0551170
  22.3065460  67.1927000  43.8531460  22.8244130  66.3895260  43.7988350
  21.8549480  67.1306140  44.6948290  27.1934960  68.4593280  39.1258760
  27.5350660  69.2035510  38.6302080  26.3647670  68.7724400  39.4883590
  19.7910000  64.1588370  50.7657160  19.4324940  64.8242220  51.3530500
  19.4964560  63.3271920  51.1369780  22.9923120  64.6172610  53.6496710
  22.6923260  64.7629790  52.7524530  23.7634360  64.0577900  53.5570100
  28.3351570  69.4141610  51.6451840  28.3496110  68.4822570  51.4270750
  27.6276670  69.5001370  52.2841610  33.4688640  63.5981430  37.9150450
  33.3852360  64.0295650  37.0646890  34.1882830  64.0579780  38.3477270
  34.5462780  66.0548950  50.9920420  33.8210970  66.6477730  50.7949810
  35.0738240  66.0472490  50.1933790  34.4975890  70.4523690  40.6432580
  33.8552050  69.7979310  40.9176300  34.1106550  70.8578780  39.8673250
  30.0762370  67.7809120  44.4904270  30.4286190  67.1837250  43.8305640
  29.1924700  67.4553350  44.6612520  26.1625650  68.5406810  41.8974680
  26.8496780  69.0876020  42.2782270  25.3758070  69.0847540  41.9324290
  18.3018050  64.1579630  37.3891760  19.1712900  64.4404430  37.6727680
  17.8108370  64.9715500  37.2740570  25.4652860  65.5452840  41.5100040
  25.9215640  66.3558090  41.7360230  25.1141070  65.2275980  42.3418530
  27.7685470  71.0559180  48.7392340  28.4127690  71.2618560  49.4165760
  28.1314910  70.2947580  48.2863190  21.3664640  55.8890490  41.9822560
  21.2379270  55.8808390  42.9307480  20.5426660  56.2273580  41.6313570
  29.0417550  69.0591530  47.4569790  29.6839780  68.3584690  47.5701960
  29.5666900  69.8389970  47.2766680  32.8873270  69.3440150  37.1808930
  32.6610850  68.6270590  37.7733570  32.4969470  69.0952590  36.3430680
  30.8155170  69.8586430  50.6605850  31.1511410  70.4453120  51.3383770
  29.8955510  69.7279140  50.8903640  18.3658570  57.6481610  51.4429260
  17.6517090  57.8478530  52.0481870  18.7853610  56.8721180  51.8144060
  32.4689520  67.2612090  38.8423090  32.1811220  67.7224780  39.6300970
  33.2641690  66.8009860  39.1107310  26.6443750  69.9077760  53.8293910
  26.3240620  69.1887000  54.3739600  25.9702110  70.5832830  53.9029970
  24.6857920  70.7538210  38.7727060  24.6768020  71.4867900  38.1571570
  23.7656280  70.5069790  38.8654020  20.2864560  65.9753100  39.5173820
  19.6792510  66.7152000  39.5269120  20.7613910  66.0652460  38.6912020
  29.8597350  60.1403920  49.1930710  30.2278170  59.3199130  49.5210280
  28.9995550  60.2005810  49.6086360  33.2259380  59.0960860  40.0018270
  32.5972540  59.2006530  39.2876500  32.7311300  59.3157640  40.7912150
  27.6717520  70.8166450  37.4352250  27.7729500  70.6130440  36.5054230
  26.7719260  70.5624730  37.6400030  25.1943410  61.3746810  41.4176150
  24.4859560  61.8433150  41.8589760  25.4787890  60.7168820  42.0521340
  26.8199340  62.7943510  49.4168680  27.3184590  63.2689330  50.0820530
  26.9622290  61.8707030  49.6238710  29.2258840  58.0997470  42.8571940
  29.1026620  58.1183600  41.9081450  30.1743400  58.1476410  42.9770340
  23.3978430  59.6831890  38.7926860  24.2468960  60.1202040  38.7267050
  23.0309700  59.9952150  39.6198920  34.0266200  59.0111470  50.2597070
  33.5239800  59.7516870  50.5990880  34.8422860  59.3995470  49.9433860
  32.3188210  64.2544650  43.7058430  31.3778350  64.2694880  43.8806120
  32.6332280  63.4680610  44.1518730  22.2969850  65.9364250  37.2662390
  23.0633120  65.8245610  37.8287820  22.3744540  65.2402220  36.6139160
  20.9916610  63.3689320  37.9495280  21.0720200  62.4216830  38.0612680
  21.8836360  63.6996200  38.0555940  18.6776800  69.5858280  40.9271330
  17.7516580  69.8279420  40.9176740  19.1433230  70.4132540  40.8056080
  29.6354230  68.8110650  54.1890810  29.0292390  68.8342250  53.4486560
  29.3308340  68.0793690  54.7258060  18.5187410  65.1904240  53.1851450
  19.0226430  64.6111520  53.7567680  17.7794830  65.4744470  53.7227820
  25.4211030  67.9118430  36.7397740  25.3161670  67.2970780  37.4659120
  25.2535250  67.3884320  35.9560750  25.5725350  66.5975230  52.7186970
  24.8071020  67.1660230  52.6341640  25.7541310  66.3051440  51.8255200
  28.6613760  66.9738460  37.3439730  28.1123860  67.4207760  37.9882470
  29.2833020  66.4687710  37.8677400  32.7148700  68.3280560  53.2761990
  33.4558170  68.6656320  52.7729450  31.9521380  68.4972620  52.7231760
  20.5510490  63.3333830  54.0801520  20.5915830  63.0347700  54.9886750
  21.4055990  63.7341440  53.9209040  24.3288880  65.9329380  39.2405030
  24.7505300  65.7669250  40.0836420  24.4539720  65.1229610  38.7460170
  22.4916300  61.9125930  52.0476010  21.9612760  61.4216880  51.4199350
  23.1604370  62.3410130  51.5133940  26.8416520  64.9566990  36.4882130
  27.3622180  64.2416010  36.1223280  27.4884920  65.5952860  36.7882640
  31.3894360  66.3795390  51.8117200  31.8035380  66.5340470  52.6607620
  30.4545360  66.5050610  51.9742980  31.8616530  63.7191550  53.8156350
  32.4437300  62.9643870  53.7276830  32.0378300  64.2498990  53.0387830
  22.9788600  58.8788300  52.1273300  22.8845470  58.2609050  51.4024170
  22.3985990  59.6054590  51.9003210  25.7450040  57.4361540  49.1600690
  25.2967340  57.4585800  48.3146240  25.1115240  57.0380560  49.7570990
  26.1509590  66.3315870  49.7813130  26.5697700  67.1748600  49.6089370
  25.2318220  66.4687910  49.5519910  28.4873490  64.0632050  51.1650970
  28.6069700  63.4673190  51.9045810  29.3467490  64.1001740  50.7452270
  30.8261390  64.6169240  49.7413480  30.2996610  65.1411860  49.1378620
  31.1692730  65.2496630  50.3723210  23.2247780  62.0062610  36.1863190
  23.0236840  61.1429970  36.5476530  23.0539830  61.9195970  35.2484790
  25.2542260  60.6053400  52.4226790  25.8441950  60.2969250  53.1104610
  24.4362500  60.1333150  52.5786690  30.0735690  60.2219210  52.6559810
  29.3851210  59.5600750  52.5909800  30.7941710  59.7757480  53.1008270
  30.7036090  56.8170840  38.7150070  30.9838380  55.9738740  39.0709490
  29.9301820  57.0493950  39.2288820  22.0230580  59.1063230  36.1741070
  22.3256480  59.1130660  35.2660220  22.7625170  58.7561090  36.6708730
  25.2415510  58.0497850  37.1597270  24.8937510  57.3721840  36.5799720
  25.4428280  57.5887360  37.9740660  21.0460710  68.4105650  37.0070870
  21.4835580  68.9535320  37.6628450  21.5308440  67.5852600  37.0167210
  18.2606510  71.1994680  44.4591130  18.5909520  70.3315740  44.2269770
  18.6897510  71.4053200  45.2896090  22.8568430  69.5303690  42.1193100
  22.5563970  69.4068660  43.0197010  22.7505920  68.6712280  41.7108830
  35.6260350  69.3100090  36.8219780  34.7953310  69.3776740  37.2927010
  35.8032180  70.2004210  36.5186640  35.0816810  66.0547570  39.3253980
  35.8435720  66.6244220  39.4313670  35.0971180  65.4874770  40.0962290
  18.5821150  64.5785500  43.5561640  17.9269990  64.3097140  42.9121340
  19.4199100  64.4689980  43.1063620  36.0876780  66.9097670  44.1695910
  36.4585610  66.1264990  43.7631880  36.7278710  67.5986770  43.9913210
  33.0710540  68.2934250  49.5826230  32.2570380  68.7231410  49.8452020
  33.4784740  68.9052660  48.9695280  35.1335980  66.3481940  36.4826500
  35.4084820  67.2560820  36.3545720  34.9446720  66.2844470  37.4188490
  31.5311590  59.3726790  37.7780130  31.9496470  59.1857770  36.9376790
  31.2247650  58.5205840  38.0883060  35.0301320  64.2850930  41.4755930
  34.6544920  63.5178860  41.0437220  34.3004440  64.6673630  41.9630860
  19.6197080  64.9638070  48.0964980  19.9870120  64.8765470  48.9761000
  19.0507900  64.2004620  47.9971840  34.4200940  63.4322450  51.1095450
  34.1887030  63.2035200  50.2093400  34.6805490  64.3522000  51.0640340
  19.1713080  61.8747160  52.0023400  18.2769130  61.8413920  52.3417110
  19.7110630  62.0733950  52.7674650  32.8589010  58.6578880  53.8875150
  33.7359190  58.6662280  54.2709150  32.8709850  57.9209720  53.2767500
  17.7959230  61.7884430  39.4986970  16.8923310  62.0514630  39.3238630
  18.2799850  62.0595600  38.7186930  34.3052280  62.5108420  44.7763170
  34.8289760  62.0171070  44.1453340  34.8911700  62.6458780  45.5210740
  34.4842000  62.5948290  48.2982720  33.5344710  62.5611830  48.4127710
  34.6655010  63.5048400  48.0632490  20.3386440  60.8449970  37.4081350
  21.0478140  60.4233190  36.9228630  19.6226380  60.9125200  36.7764700
  19.9860600  56.8989300  36.4484000  20.7088730  57.4398240  36.7665220
  20.2585120  56.6252720  35.5725540  33.7952250  61.7681770  40.7155580
  34.2911370  61.5352640  41.5004460  33.5968320  60.9293610  40.2993220
  19.6752790  56.1495490  46.3506620  20.3228980  55.5992870  45.9101780
  20.0954630  56.4038640  47.1722430  35.2239410  60.4042720  43.2493260
  35.1138690  60.2498760  44.1875530  35.9847000  59.8763660  43.0068670
  33.5705130  56.3436850  49.7076260  34.2077350  56.9570990  50.0735450
  33.7180020  56.3797510  48.7625490  36.1129680  58.2350640  36.4899400
  37.0378990  58.1031820  36.2817690  36.0905470  58.3143460  37.4435850
  36.1868170  59.0061300  39.1156110  35.3919670  58.9406420  39.6449020
  36.3911450  59.9411940  39.1041460  19.4284790  56.3051160  49.0931940
  19.0799610  56.7614980  49.8590120  19.0972490  55.4108290  49.1754370
  21.0349160  69.4770760  53.2585130  20.9918790  69.1063670  54.1399590
  21.1660170  70.4148330  53.3986950  24.7355190  71.0330350  48.8594850
  24.4946550  71.3004910  47.9725370  25.6757830  71.2036080  48.9145710
  26.9409610  57.4963040  52.6151360  26.8798500  58.0884870  53.3646770
  27.8809990  57.3889000  52.4701620  29.5784170  57.1533100  52.2543650
  30.1924580  57.4712390  51.5924730  30.1233730  56.6681690  52.8739510
  20.1005430  55.8327360  52.3682710  20.6488420  55.6515410  51.6048820
  20.1660740  55.0421470  52.9039020  30.3192210  55.7165240  48.5812940
  29.4452050  56.0500350  48.3785870  30.2102960  55.2438420  49.4064810
  31.2264190  57.9236110  49.9654660  30.8977550  57.1087870  49.5856390
  32.1746490  57.8805920  49.8420350  20.5049420  69.7891390  49.3290950
  19.7783480  69.1696680  49.2616900  20.5658570  70.1832000  48.4589030
  28.0667030  56.6335080  47.5205850  27.2838820  57.1080580  47.8002610
  27.7729960  55.7289910  47.4119030  32.6188100  57.3358180  45.5654940
  33.0596190  57.2803280  44.7176540  32.3495690  58.2516190  45.6365120
  34.4826670  56.9673420  43.5763760  34.4215070  56.0234640  43.4294780
  35.2618700  57.0753510  44.1217220  19.4107440  56.9382560  40.0419570
  20.1686800  57.0511440  39.4683600  18.9484610  57.7751760  39.9963000
  25.9521250  59.0521830  43.0321880  25.1395760  58.6778720  42.6917760
  26.4562890  58.2966910  43.3343070  30.4546230  55.7164280  44.2704950
  31.0575600  56.2884490  44.7453470  29.7139220  56.2803720  44.0478850
  33.5980830  56.1185840  39.5445230  33.7931460  57.0169290  39.8112660
  32.8110700  55.8872920  40.0378180  21.7832590  57.4646610  38.5821540
  22.3125350  56.6776410  38.4529490  22.4160910  58.1437800  38.8157070
  23.9770430  57.2021750  41.6366930  23.3473170  56.5009060  41.8037060
  23.4375570  57.9625880  41.4200090  24.1025990  56.4805730  54.0719420
  23.8210260  56.9839330  53.3080240  24.4845690  55.6827480  53.7061550
  22.1549880  69.8646120  38.8633430  21.5258760  70.3331220  39.4119260
  22.2697710  69.0195340  39.2979620  30.7041450  55.8959310  54.6499890
  30.5906900  56.2153920  55.5451410  31.5211190  56.2971820  54.3537170
  29.6099600  63.9151780  25.0134630  29.5293650  63.0006390  24.7426340
  29.1964020  64.4118850  24.3074340  27.7417640  65.6930800  26.8943900
  26.9659740  65.2131240  27.1842470  28.3930570  65.0136450  26.7200060
  21.7583470  66.0050610  27.7719660  20.9268350  65.7499320  28.1716170
  22.3664450  66.0761380  28.5077580  31.7625070  70.0990990  25.6743030
  31.3006600  69.3278230  26.0030200  32.5750620  70.1257060  26.1795480
  21.7384730  70.0390700  27.9677680  22.0412770  69.1488440  27.7887900
  22.4828320  70.5960920  27.7399930  20.1675420  60.9652500  21.5562050
  19.2792120  61.3068470  21.4541930  20.4516610  60.7652820  20.6642880
  18.1308430  63.5658150  27.4401750  18.7024540  62.7980350  27.4405390
  18.1309970  63.8646910  26.5308360  27.1826630  68.3687990  26.9014060
  27.1134910  67.4277930  26.7403190  27.9446490  68.4589400  27.4736630
  19.3733300  58.9742510  29.2270680  19.1936140  58.0768260  29.5073440
  18.9713380  59.5214380  29.9017630  28.2131800  61.1758370  27.1282990
  28.5896620  60.3030250  27.0156660  28.1151310  61.5117070  26.2373430
  22.3436810  59.5484000  22.5900430  22.4503560  60.4487730  22.8969190
  21.4329170  59.5001970  22.2995080  31.9955920  58.6708810  24.0611330
  32.8165540  58.1805380  24.1036810  32.0290000  59.2606470  24.8143170
  19.9919970  61.4703010  27.8353020  20.6730080  61.7341380  28.4540420
  19.6768020  60.6303880  28.1691030  24.1844540  62.5170370  26.9225610
  24.6922760  63.0151340  27.5630630  24.7157780  61.7405570  26.7464970
  36.2855470  60.6875560  30.6254960  35.5807640  61.0757270  30.1070070
  36.5513390  61.3825850  31.2275890  22.4680640  57.1568930  31.1889030
  22.4699080  57.6741320  30.3834930  21.6384950  56.6799110  31.1658960
  28.8551730  67.2688240  22.6878930  28.2369000  67.7337690  22.1241650
  29.3674980  67.9615720  23.1048440  23.7183490  66.7964110  29.3662530
  23.3852870  67.4233030  30.0083600  23.8950170  67.3225990  28.5864200
  32.2317400  60.6109190  26.8338870  31.5272970  60.8994080  27.4141980
  32.5929560  61.4209300  26.4738430  22.1495970  58.8678890  29.1959480
  22.4912780  59.7120940  28.9013350  21.2111780  59.0162630  29.3124820
  22.9302590  68.7644910  31.1811710  23.5476590  69.4395990  30.8996160
  22.0695710  69.1732890  31.0899210  18.2234930  67.9544770  20.0618560
  17.8462910  68.4431870  19.3303460  18.4808000  68.6270050  20.6925090
  33.8480180  70.2284320  29.0966350  33.1643700  70.8983430  29.0883020
  34.3874470  70.4264970  28.3311210  35.3004320  60.0563980  27.2248080
  34.3529230  60.0902960  27.3563510  35.6254310  60.8702930  27.6097440
  25.8323860  56.3561160  25.5204070  26.1398840  55.8008050  24.8039570
  24.9024560  56.4905620  25.3377060  32.6784340  68.7944670  22.9001700
  32.5680670  67.8519000  23.0251120  32.6752590  69.1560310  23.7864460
  30.7824360  66.9758290  29.1394140  31.1993150  66.7618400  28.3047600
  31.5064180  67.2331080  29.7102760  28.2204620  64.4209990  22.2564190
  27.2933900  64.3547370  22.4852660  28.3729440  65.3590120  22.1419430
  28.2073700  60.6926990  19.2531350  27.2677370  60.8540950  19.3383810
  28.5256960  61.4112670  18.7067340  34.7286460  65.3745510  29.2310380
  33.9005090  65.4438600  28.7560510  35.3236940  65.9599820  28.7626210
  32.2501910  65.9830290  22.7599440  31.6314330  65.6449840  22.1125740
  32.2326360  65.3390050  23.4678630  31.6928470  62.1614830  30.1765250
  31.2799650  62.9868540  30.4305240  30.9604420  61.5759870  29.9841610
  23.8261260  64.9474730  25.0383920  23.4218260  64.2351980  24.5429820
  23.9124380  64.6027970  25.9271960  24.2942960  68.6342290  27.2023130
  23.9971250  68.0287760  26.5230910  25.2442780  68.6719600  27.0912490
  22.5389880  61.7217940  28.8182960  23.0904470  61.8313280  28.0436210
  23.0533390  62.0955540  29.5338190  23.3861390  68.3723980  33.8530930
  22.4889920  68.5963950  34.1004330  23.4114260  68.4958920  32.9042330
  30.4266610  65.2217100  19.7672190  30.8659890  64.3839530  19.6210010
  31.1395030  65.8546500  19.8536330  22.2132610  65.2437300  32.4288300
  22.0740380  66.1160100  32.7975700  21.3313970  64.9010110  32.2836240
  28.5361990  70.1613170  23.7353430  28.9757900  70.9037500  23.3208820
  28.4748880  70.4039740  24.6592390  34.0083750  56.4759910  18.0813230
  33.6956410  56.5686740  18.9812300  34.7696220  57.0540940  18.0310660
  20.5265890  63.8419710  22.5390570  20.4063490  64.5681800  21.9271840
  20.2166780  63.0722620  22.0618480  18.1651260  67.0134850  28.3459210
  18.2431680  67.1483620  27.4014930  18.7792940  66.3050740  28.5387330
  19.4098890  68.7135040  24.7565390  19.0026970  68.8549630  23.9018990
  20.3011900  68.4295200  24.5536600  35.3661030  69.1598950  33.0937630
  35.4924090  68.9210830  32.1754810  35.4082410  68.3283490  33.5659710
  30.9058300  70.6569850  19.6514440  30.2123460  70.6547140  18.9916720
  31.6481160  70.2329170  19.2208610  35.2185040  61.2131410  34.0587370
  34.6029310  61.7211080  33.5302830  34.8981460  60.3129740  34.0013310
  18.2210780  68.0549020  30.8853670  18.3841820  67.5854380  30.0673040
  18.6863230  67.5472580  31.5502510  22.9929550  57.1854780  25.9214240
  22.5497700  57.9664320  25.5898760  23.5514540  57.5084670  26.6285180
  27.2799360  60.0523300  31.5249560  26.8178730  60.2606320  32.3369500
  26.8777470  59.2382650  31.2220230  32.2803870  61.2732250  32.6546220
  31.4297460  60.9738000  32.9755290  32.1205660  61.5174260  31.7430040
  29.3753580  62.7734000  34.7545010  29.7006990  61.9397750  34.4147240
  30.1633910  63.2962520  34.9023340  26.1088370  56.8065480  20.8020070
  25.4842550  56.8025350  21.5273380  26.0218490  55.9396440  20.4056040
  25.0305450  57.7302110  27.7803840  25.3277780  58.6364940  27.6995860
  25.5791010  57.2420890  27.1663410  22.7843770  62.3088350  23.6495490
  22.5584690  62.0925520  24.5542110  22.0036300  62.7416810  23.3041460
  30.0141530  62.3151720  22.2486140  29.4150420  63.0387520  22.0649760
  30.5621140  62.2528500  21.4662590  25.2242980  63.2073930  34.3155760
  25.1286580  62.2668660  34.1656160  26.0674960  63.4289000  33.9203830
  28.6206400  60.9515260  24.2789420  29.0135970  61.2687460  23.4658110
  28.9823250  60.0727140  24.3933940  20.3553520  59.6187600  32.4689540
  19.9616910  60.4662810  32.6762320  19.6671920  58.9813970  32.6598180
  26.9298570  59.7022570  35.5386280  26.2396890  59.5094770  36.1732370
  27.6730870  59.9857210  36.0710580  17.6570570  57.5416060  26.5019620
  17.3683620  58.1118920  27.2144600  18.4016330  57.0620510  26.8650850
  17.8440800  61.4836180  17.7122340  17.7615470  62.4266940  17.8537330
  17.4923860  61.3411090  16.8334690  29.2061540  63.5421010  28.3740200
  28.4742660  64.0507820  28.7230300  28.8085880  62.7250990  28.0728980
  25.6438930  60.2175210  26.7792690  25.6474990  59.7765160  25.9297230
  26.5390050  60.5392540  26.8864510  21.4941310  60.1001700  25.7386900
  21.1541360  60.5776930  26.4953950  20.7318630  59.6466820  25.3788000
  25.7059080  61.2187290  19.7699450  25.8271900  61.1773770  20.7185270
  25.3207590  62.0811440  19.6146180  29.6687450  58.9954690  27.7863140
  29.6860190  59.4463340  28.6304990  29.4203030  58.0960330  27.9996580
  24.7180580  63.5288430  19.1682750  24.1497480  63.0806680  18.5418660
  25.4269580  63.8881210  18.6347900  33.0958200  56.4086870  33.6249520
  33.4203970  55.6776530  34.1507500  33.1314710  56.0900510  32.7230510
  19.7949760  67.4300450  33.0449480  19.4104550  66.7894120  33.6432440
  20.1061950  68.1336570  33.6144210  25.9446900  64.2776990  28.5258100
  26.3117030  63.8035560  29.2719440  25.7551960  65.1518560  28.8666440
  18.8087390  59.0220680  24.6551570  18.5234310  58.6576350  25.4930190
  18.7466250  58.2901140  24.0414710  23.7346270  63.3185630  30.8442310
  23.4303340  64.1977610  31.0692670  24.6892730  63.3785420  30.8799750
  22.2628060  67.5246620  21.4409160  21.4890320  66.9844240  21.2807880
  22.9922690  67.0053230  21.1026920  33.0216040  66.5211980  27.2335550
  33.7415160  67.0167270  26.8431660  32.8197860  65.8429870  26.5889420
  28.4825980  57.9149940  21.3764940  27.6690590  57.4163110  21.3010250
  28.2887930  58.7548190  20.9601290  28.4034840  66.5921040  33.1204550
  28.3372150  65.6716710  32.8662140  27.7739980  66.6896480  33.8349190
  31.1974370  62.2869590  19.6727100  32.0853990  62.5986820  19.4978440
  31.1679460  61.4141840  19.2807680  22.3065460  67.1927000  25.0787970
  22.8244130  66.3895260  25.0244860  21.8549480  67.1306140  25.9204800
  27.1934960  68.4593280  20.3515270  27.5350660  69.2035510  19.8558590
  26.3647670  68.7724400  20.7140100  19.7910000  64.1588370  31.9913670
  19.4324940  64.8242220  32.5787010  19.4964560  63.3271920  32.3626290
  22.9923120  64.6172610  34.8753220  22.6923260  64.7629790  33.9781040
  23.7634360  64.0577900  34.7826610  28.3351570  69.4141610  32.8708350
  28.3496110  68.4822570  32.6527260  27.6276670  69.5001370  33.5098120
  33.4688640  63.5981430  19.1406960  33.3852360  64.0295650  18.2903400
  34.1882830  64.0579780  19.5733780  34.5462780  66.0548950  32.2176930
  33.8210970  66.6477730  32.0206320  35.0738240  66.0472490  31.4190300
  34.4975890  70.4523690  21.8689090  33.8552050  69.7979310  22.1432810
  34.1106550  70.8578780  21.0929760  30.0762370  67.7809120  25.7160780
  30.4286190  67.1837250  25.0562150  29.1924700  67.4553350  25.8869030
  26.1625650  68.5406810  23.1231190  26.8496780  69.0876020  23.5038780
  25.3758070  69.0847540  23.1580800  18.3018050  64.1579630  18.6148270
  19.1712900  64.4404430  18.8984190  17.8108370  64.9715500  18.4997080
  25.4652860  65.5452840  22.7356550  25.9215640  66.3558090  22.9616740
  25.1141070  65.2275980  23.5675040  27.7685470  71.0559180  29.9648850
  28.4127690  71.2618560  30.6422270  28.1314910  70.2947580  29.5119700
  21.3664640  55.8890490  23.2079070  21.2379270  55.8808390  24.1563990
  20.5426660  56.2273580  22.8570080  29.0417550  69.0591530  28.6826300
  29.6839780  68.3584690  28.7958470  29.5666900  69.8389970  28.5023190
  32.8873270  69.3440150  18.4065440  32.6610850  68.6270590  18.9990080
  32.4969470  69.0952590  17.5687190  30.8155170  69.8586430  31.8862360
  31.1511410  70.4453120  32.5640280  29.8955510  69.7279140  32.1160150
  18.3658570  57.6481610  32.6685770  17.6517090  57.8478530  33.2738380
  18.7853610  56.8721180  33.0400570  32.4689520  67.2612090  20.0679600
  32.1811220  67.7224780  20.8557480  33.2641690  66.8009860  20.3363820
  26.6443750  69.9077760  35.0550420  26.3240620  69.1887000  35.5996110
  25.9702110  70.5832830  35.1286480  24.6857920  70.7538210  19.9983570
  24.6768020  71.4867900  19.3828080  23.7656280  70.5069790  20.0910530
  20.2864560  65.9753100  20.7430330  19.6792510  66.7152000  20.7525630
  20.7613910  66.0652460  19.9168530  29.8597350  60.1403920  30.4187220
  30.2278170  59.3199130  30.7466790  28.9995550  60.2005810  30.8342870
  33.2259380  59.0960860  21.2274780  32.5972540  59.2006530  20.5133010
  32.7311300  59.3157640  22.0168660  27.6717520  70.8166450  18.6608760
  27.7729500  70.6130440  17.7310740  26.7719260  70.5624730  18.8656540
  25.1943410  61.3746810  22.6432660  24.4859560  61.8433150  23.0846270
  25.4787890  60.7168820  23.2777850  26.8199340  62.7943510  30.6425190
  27.3184590  63.2689330  31.3077040  26.9622290  61.8707030  30.8495220
  29.2258840  58.0997470  24.0828450  29.1026620  58.1183600  23.1337960
  30.1743400  58.1476410  24.2026850  23.3978430  59.6831890  20.0183370
  24.2468960  60.1202040  19.9523560  23.0309700  59.9952150  20.8455430
  34.0266200  59.0111470  31.4853580  33.5239800  59.7516870  31.8247390
  34.8422860  59.3995470  31.1690370  32.3188210  64.2544650  24.9314940
  31.3778350  64.2694880  25.1062630  32.6332280  63.4680610  25.3775240
  22.2969850  65.9364250  18.4918900  23.0633120  65.8245610  19.0544330
  22.3744540  65.2402220  17.8395670  20.9916610  63.3689320  19.1751790
  21.0720200  62.4216830  19.2869190  21.8836360  63.6996200  19.2812450
  18.6776800  69.5858280  22.1527840  17.7516580  69.8279420  22.1433250
  19.1433230  70.4132540  22.0312590  29.6354230  68.8110650  35.4147320
  29.0292390  68.8342250  34.6743070  29.3308340  68.0793690  35.9514570
  18.5187410  65.1904240  34.4107960  19.0226430  64.6111520  34.9824190
  17.7794830  65.4744470  34.9484330  25.4211030  67.9118430  17.9654250
  25.3161670  67.2970780  18.6915630  25.2535250  67.3884320  17.1817260
  25.5725350  66.5975230  33.9443480  24.8071020  67.1660230  33.8598150
  25.7541310  66.3051440  33.0511710  28.6613760  66.9738460  18.5696240
  28.1123860  67.4207760  19.2138980  29.2833020  66.4687710  19.0933910
  32.7148700  68.3280560  34.5018500  33.4558170  68.6656320  33.9985960
  31.9521380  68.4972620  33.9488270  20.5510490  63.3333830  35.3058030
  20.5915830  63.0347700  36.2143260  21.4055990  63.7341440  35.1465550
  24.3288880  65.9329380  20.4661540  24.7505300  65.7669250  21.3092930
  24.4539720  65.1229610  19.9716680  22.4916300  61.9125930  33.2732520
  21.9612760  61.4216880  32.6455860  23.1604370  62.3410130  32.7390450
  26.8416520  64.9566990  17.7138640  27.3622180  64.2416010  17.3479790
  27.4884920  65.5952860  18.0139150  31.3894360  66.3795390  33.0373710
  31.8035380  66.5340470  33.8864130  30.4545360  66.5050610  33.1999490
  31.8616530  63.7191550  35.0412860  32.4437300  62.9643870  34.9533340
  32.0378300  64.2498990  34.2644340  22.9788600  58.8788300  33.3529810
  22.8845470  58.2609050  32.6280680  22.3985990  59.6054590  33.1259720
  25.7450040  57.4361540  30.3857200  25.2967340  57.4585800  29.5402750
  25.1115240  57.0380560  30.9827500  26.1509590  66.3315870  31.0069640
  26.5697700  67.1748600  30.8345880  25.2318220  66.4687910  30.7776420
  28.4873490  64.0632050  32.3907480  28.6069700  63.4673190  33.1302320
  29.3467490  64.1001740  31.9708780  30.8261390  64.6169240  30.9669990
  30.2996610  65.1411860  30.3635130  31.1692730  65.2496630  31.5979720
  23.2247780  62.0062610  17.4119700  23.0236840  61.1429970  17.7733040
  23.0539830  61.9195970  16.4741300  25.2542260  60.6053400  33.6483300
  25.8441950  60.2969250  34.3361120  24.4362500  60.1333150  33.8043200
  30.0735690  60.2219210  33.8816320  29.3851210  59.5600750  33.8166310
  30.7941710  59.7757480  34.3264780  30.7036090  56.8170840  19.9406580
  30.9838380  55.9738740  20.2966000  29.9301820  57.0493950  20.4545330
  22.0230580  59.1063230  17.3997580  22.3256480  59.1130660  16.4916730
  22.7625170  58.7561090  17.8965240  25.2415510  58.0497850  18.3853780
  24.8937510  57.3721840  17.8056230  25.4428280  57.5887360  19.1997170
  21.0460710  68.4105650  18.2327380  21.4835580  68.9535320  18.8884960
  21.5308440  67.5852600  18.2423720  18.2606510  71.1994680  25.6847640
  18.5909520  70.3315740  25.4526280  18.6897510  71.4053200  26.5152600
  22.8568430  69.5303690  23.3449610  22.5563970  69.4068660  24.2453520
  22.7505920  68.6712280  22.9365340  35.6260350  69.3100090  18.0476290
  34.7953310  69.3776740  18.5183520  35.8032180  70.2004210  17.7443150
  35.0816810  66.0547570  20.5510490  35.8435720  66.6244220  20.6570180
  35.0971180  65.4874770  21.3218800  18.5821150  64.5785500  24.7818150
  17.9269990  64.3097140  24.1377850  19.4199100  64.4689980  24.3320130
  36.0876780  66.9097670  25.3952420  36.4585610  66.1264990  24.9888390
  36.7278710  67.5986770  25.2169720  33.0710540  68.2934250  30.8082740
  32.2570380  68.7231410  31.0708530  33.4784740  68.9052660  30.1951790
  35.1335980  66.3481940  17.7083010  35.4084820  67.2560820  17.5802230
  34.9446720  66.2844470  18.6445000  31.5311590  59.3726790  19.0036640
  31.9496470  59.1857770  18.1633300  31.2247650  58.5205840  19.3139570
  35.0301320  64.2850930  22.7012440  34.6544920  63.5178860  22.2693730
  34.3004440  64.6673630  23.1887370  19.6197080  64.9638070  29.3221490
  19.9870120  64.8765470  30.2017510  19.0507900  64.2004620  29.2228350
  34.4200940  63.4322450  32.3351960  34.1887030  63.2035200  31.4349910
  34.6805490  64.3522000  32.2896850  19.1713080  61.8747160  33.2279910
  18.2769130  61.8413920  33.5673620  19.7110630  62.0733950  33.9931160
  32.8589010  58.6578880  35.1131660  33.7359190  58.6662280  35.4965660
  32.8709850  57.9209720  34.5024010  17.7959230  61.7884430  20.7243480
  16.8923310  62.0514630  20.5495140  18.2799850  62.0595600  19.9443440
  34.3052280  62.5108420  26.0019680  34.8289760  62.0171070  25.3709850
  34.8911700  62.6458780  26.7467250  34.4842000  62.5948290  29.5239230
  33.5344710  62.5611830  29.6384220  34.6655010  63.5048400  29.2889000
  20.3386440  60.8449970  18.6337860  21.0478140  60.4233190  18.1485140
  19.6226380  60.9125200  18.0021210  19.9860600  56.8989300  17.6740510
  20.7088730  57.4398240  17.9921730  20.2585120  56.6252720  16.7982050
  33.7952250  61.7681770  21.9412090  34.2911370  61.5352640  22.7260970
  33.5968320  60.9293610  21.5249730  19.6752790  56.1495490  27.5763130
  20.3228980  55.5992870  27.1358290  20.0954630  56.4038640  28.3978940
  35.2239410  60.4042720  24.4749770  35.1138690  60.2498760  25.4132040
  35.9847000  59.8763660  24.2325180  33.5705130  56.3436850  30.9332770
  34.2077350  56.9570990  31.2991960  33.7180020  56.3797510  29.9882000
  36.1129680  58.2350640  17.7155910  37.0378990  58.1031820  17.5074200
  36.0905470  58.3143460  18.6692360  36.1868170  59.0061300  20.3412620
  35.3919670  58.9406420  20.8705530  36.3911450  59.9411940  20.3297970
  19.4284790  56.3051160  30.3188450  19.0799610  56.7614980  31.0846630
  19.0972490  55.4108290  30.4010880  21.0349160  69.4770760  34.4841640
  20.9918790  69.1063670  35.3656100  21.1660170  70.4148330  34.6243460
  24.7355190  71.0330350  30.0851360  24.4946550  71.3004910  29.1981880
  25.6757830  71.2036080  30.1402220  26.9409610  57.4963040  33.8407870
  26.8798500  58.0884870  34.5903280  27.8809990  57.3889000  33.6958130
  29.5784170  57.1533100  33.4800160  30.1924580  57.4712390  32.8181240
  30.1233730  56.6681690  34.0996020  20.1005430  55.8327360  33.5939220
  20.6488420  55.6515410  32.8305330  20.1660740  55.0421470  34.1295530
  30.3192210  55.7165240  29.8069450  29.4452050  56.0500350  29.6042380
  30.2102960  55.2438420  30.6321320  31.2264190  57.9236110  31.1911170
  30.8977550  57.1087870  30.8112900  32.1746490  57.8805920  31.0676860
  20.5049420  69.7891390  30.5547460  19.7783480  69.1696680  30.4873410
  20.5658570  70.1832000  29.6845540  28.0667030  56.6335080  28.7462360
  27.2838820  57.1080580  29.0259120  27.7729960  55.7289910  28.6375540
  32.6188100  57.3358180  26.7911450  33.0596190  57.2803280  25.9433050
  32.3495690  58.2516190  26.8621630  34.4826670  56.9673420  24.8020270
  34.4215070  56.0234640  24.6551290  35.2618700  57.0753510  25.3473730
  19.4107440  56.9382560  21.2676080  20.1686800  57.0511440  20.6940110
  18.9484610  57.7751760  21.2219510  25.9521250  59.0521830  24.2578390
  25.1395760  58.6778720  23.9174270  26.4562890  58.2966910  24.5599580
  30.4546230  55.7164280  25.4961460  31.0575600  56.2884490  25.9709980
  29.7139220  56.2803720  25.2735360  33.5980830  56.1185840  20.7701740
  33.7931460  57.0169290  21.0369170  32.8110700  55.8872920  21.2634690
  21.7832590  57.4646610  19.8078050  22.3125350  56.6776410  19.6786000
  22.4160910  58.1437800  20.0413580  23.9770430  57.2021750  22.8623440
  23.3473170  56.5009060  23.0293570  23.4375570  57.9625880  22.6456600
  24.1025990  56.4805730  35.2975930  23.8210260  56.9839330  34.5336750
  24.4845690  55.6827480  34.9318060  22.1549880  69.8646120  20.0889940
  21.5258760  70.3331220  20.6375770  22.2697710  69.0195340  20.5236130
  30.7041450  55.8959310  35.8756400  30.5906900  56.2153920  36.7707920
  31.5211190  56.2971820  35.5793680  29.6099600  63.9151780   6.2391140
  29.5293650  63.0006390   5.9682850  29.1964020  64.4118850   5.5330850
  27.7417640  65.6930800   8.1200410  26.9659740  65.2131240   8.4098980
  28.3930570  65.0136450   7.9456570  21.7583470  66.0050610   8.9976170
  20.9268350  65.7499320   9.3972680  22.3664450  66.0761380   9.7334090
  31.7625070  70.0990990   6.8999540  31.3006600  69.3278230   7.2286710
  32.5750620  70.1257060   7.4051990  21.7384730  70.0390700   9.1934190
  22.0412770  69.1488440   9.0144410  22.4828320  70.5960920   8.9656440
  20.1675420  60.9652500   2.7818560  19.2792120  61.3068470   2.6798440
  20.4516610  60.7652820   1.8899390  18.1308430  63.5658150   8.6658260
  18.7024540  62.7980350   8.6661900  18.1309970  63.8646910   7.7564870
  27.1826630  68.3687990   8.1270570  27.1134910  67.4277930   7.9659700
  27.9446490  68.4589400   8.6993140  19.3733300  58.9742510  10.4527190
  19.1936140  58.0768260  10.7329950  18.9713380  59.5214380  11.1274140
  28.2131800  61.1758370   8.3539500  28.5896620  60.3030250   8.2413170
  28.1151310  61.5117070   7.4629940  22.3436810  59.5484000   3.8156940
  22.4503560  60.4487730   4.1225700  21.4329170  59.5001970   3.5251590
  31.9955920  58.6708810   5.2867840  32.8165540  58.1805380   5.3293320
  32.0290000  59.2606470   6.0399680  19.9919970  61.4703010   9.0609530
  20.6730080  61.7341380   9.6796930  19.6768020  60.6303880   9.3947540
  24.1844540  62.5170370   8.1482120  24.6922760  63.0151340   8.7887140
  24.7157780  61.7405570   7.9721480  36.2855470  60.6875560  11.8511470
  35.5807640  61.0757270  11.3326580  36.5513390  61.3825850  12.4532400
  22.4680640  57.1568930  12.4145540  22.4699080  57.6741320  11.6091440
  21.6384950  56.6799110  12.3915470  28.8551730  67.2688240   3.9135440
  28.2369000  67.7337690   3.3498160  29.3674980  67.9615720   4.3304950
  23.7183490  66.7964110  10.5919040  23.3852870  67.4233030  11.2340110
  23.8950170  67.3225990   9.8120710  32.2317400  60.6109190   8.0595380
  31.5272970  60.8994080   8.6398490  32.5929560  61.4209300   7.6994940
  22.1495970  58.8678890  10.4215990  22.4912780  59.7120940  10.1269860
  21.2111780  59.0162630  10.5381330  22.9302590  68.7644910  12.4068220
  23.5476590  69.4395990  12.1252670  22.0695710  69.1732890  12.3155720
  33.8480180  70.2284320  10.3222860  33.1643700  70.8983430  10.3139530
  34.3874470  70.4264970   9.5567720  35.3004320  60.0563980   8.4504590
  34.3529230  60.0902960   8.5820020  35.6254310  60.8702930   8.8353950
  25.8323860  56.3561160   6.7460580  26.1398840  55.8008050   6.0296080
  24.9024560  56.4905620   6.5633570  32.6784340  68.7944670   4.1258210
  32.5680670  67.8519000   4.2507630  32.6752590  69.1560310   5.0120970
  30.7824360  66.9758290  10.3650650  31.1993150  66.7618400   9.5304110
  31.5064180  67.2331080  10.9359270  28.2204620  64.4209990   3.4820700
  27.2933900  64.3547370   3.7109170  28.3729440  65.3590120   3.3675940
  34.7286460  65.3745510  10.4566890  33.9005090  65.4438600   9.9817020
  35.3236940  65.9599820   9.9882720  32.2501910  65.9830290   3.9855950
  31.6314330  65.6449840   3.3382250  32.2326360  65.3390050   4.6935140
  31.6928470  62.1614830  11.4021760  31.2799650  62.9868540  11.6561750
  30.9604420  61.5759870  11.2098120  23.8261260  64.9474730   6.2640430
  23.4218260  64.2351980   5.7686330  23.9124380  64.6027970   7.1528470
  24.2942960  68.6342290   8.4279640  23.9971250  68.0287760   7.7487420
  25.2442780  68.6719600   8.3169000  22.5389880  61.7217940  10.0439470
  23.0904470  61.8313280   9.2692720  23.0533390  62.0955540  10.7594700
  23.3861390  68.3723980  15.0787440  22.4889920  68.5963950  15.3260840
  23.4114260  68.4958920  14.1298840  22.2132610  65.2437300  13.6544810
  22.0740380  66.1160100  14.0232210  21.3313970  64.9010110  13.5092750
  28.5361990  70.1613170   4.9609940  28.9757900  70.9037500   4.5465330
  28.4748880  70.4039740   5.8848900  20.5265890  63.8419710   3.7647080
  20.4063490  64.5681800   3.1528350  20.2166780  63.0722620   3.2874990
  18.1651260  67.0134850   9.5715720  18.2431680  67.1483620   8.6271440
  18.7792940  66.3050740   9.7643840  19.4098890  68.7135040   5.9821900
  19.0026970  68.8549630   5.1275500  20.3011900  68.4295200   5.7793110
  35.3661030  69.1598950  14.3194140  35.4924090  68.9210830  13.4011320
  35.4082410  68.3283490  14.7916220  35.2185040  61.2131410  15.2843880
  34.6029310  61.7211080  14.7559340  34.8981460  60.3129740  15.2269820
  18.2210780  68.0549020  12.1110180  18.3841820  67.5854380  11.2929550
  18.6863230  67.5472580  12.7759020  22.9929550  57.1854780   7.1470750
  22.5497700  57.9664320   6.8155270  23.5514540  57.5084670   7.8541690
  27.2799360  60.0523300  12.7506070  26.8178730  60.2606320  13.5626010
  26.8777470  59.2382650  12.4476740  32.2803870  61.2732250  13.8802730
  31.4297460  60.9738000  14.2011800  32.1205660  61.5174260  12.9686550
  29.3753580  62.7734000  15.9801520  29.7006990  61.9397750  15.6403750
  30.1633910  63.2962520  16.1279850  25.0305450  57.7302110   9.0060350
  25.3277780  58.6364940   8.9252370  25.5791010  57.2420890   8.3919920
  22.7843770  62.3088350   4.8752000  22.5584690  62.0925520   5.7798620
  22.0036300  62.7416810   4.5297970  30.0141530  62.3151720   3.4742650
  29.4150420  63.0387520   3.2906270  30.5621140  62.2528500   2.6919100
  25.2242980  63.2073930  15.5412270  25.1286580  62.2668660  15.3912670
  26.0674960  63.4289000  15.1460340  28.6206400  60.9515260   5.5045930
  29.0135970  61.2687460   4.6914620  28.9823250  60.0727140   5.6190450
  20.3553520  59.6187600  13.6946050  19.9616910  60.4662810  13.9018830
  19.6671920  58.9813970  13.8854690  26.9298570  59.7022570  16.7642790
  26.2396890  59.5094770  17.3988880  27.6730870  59.9857210  17.2967090
  17.6570570  57.5416060   7.7276130  17.3683620  58.1118920   8.4401110
  18.4016330  57.0620510   8.0907360  29.2061540  63.5421010   9.5996710
  28.4742660  64.0507820   9.9486810  28.8085880  62.7250990   9.2985490
  25.6438930  60.2175210   8.0049200  25.6474990  59.7765160   7.1553740
  26.5390050  60.5392540   8.1121020  21.4941310  60.1001700   6.9643410
  21.1541360  60.5776930   7.7210460  20.7318630  59.6466820   6.6044510
  29.6687450  58.9954690   9.0119650  29.6860190  59.4463340   9.8561500
  29.4203030  58.0960330   9.2253090  33.0958200  56.4086870  14.8506030
  33.4203970  55.6776530  15.3764010  33.1314710  56.0900510  13.9487020
  19.7949760  67.4300450  14.2705990  19.4104550  66.7894120  14.8688950
  20.1061950  68.1336570  14.8400720  25.9446900  64.2776990   9.7514610
  26.3117030  63.8035560  10.4975950  25.7551960  65.1518560  10.0922950
  18.8087390  59.0220680   5.8808080  18.5234310  58.6576350   6.7186700
  18.7466250  58.2901140   5.2671220  23.7346270  63.3185630  12.0698820
  23.4303340  64.1977610  12.2949180  24.6892730  63.3785420  12.1056260
  22.2628060  67.5246620   2.6665670  21.4890320  66.9844240   2.5064390
  22.9922690  67.0053230   2.3283430  33.0216040  66.5211980   8.4592060
  33.7415160  67.0167270   8.0688170  32.8197860  65.8429870   7.8145930
  28.4825980  57.9149940   2.6021450  27.6690590  57.4163110   2.5266760
  28.2887930  58.7548190   2.1857800  28.4034840  66.5921040  14.3461060
  28.3372150  65.6716710  14.0918650  27.7739980  66.6896480  15.0605700
  22.3065460  67.1927000   6.3044480  22.8244130  66.3895260   6.2501370
  21.8549480  67.1306140   7.1461310  19.7910000  64.1588370  13.2170180
  19.4324940  64.8242220  13.8043520  19.4964560  63.3271920  13.5882800
  22.9923120  64.6172610  16.1009730  22.6923260  64.7629790  15.2037550
  23.7634360  64.0577900  16.0083120  28.3351570  69.4141610  14.0964860
  28.3496110  68.4822570  13.8783770  27.6276670  69.5001370  14.7354630
  34.5462780  66.0548950  13.4433440  33.8210970  66.6477730  13.2462830
  35.0738240  66.0472490  12.6446810  34.4975890  70.4523690   3.0945600
  33.8552050  69.7979310   3.3689320  34.1106550  70.8578780   2.3186270
  30.0762370  67.7809120   6.9417290  30.4286190  67.1837250   6.2818660
  29.1924700  67.4553350   7.1125540  26.1625650  68.5406810   4.3487700
  26.8496780  69.0876020   4.7295290  25.3758070  69.0847540   4.3837310
  25.4652860  65.5452840   3.9613060  25.9215640  66.3558090   4.1873250
  25.1141070  65.2275980   4.7931550  27.7685470  71.0559180  11.1905360
  28.4127690  71.2618560  11.8678780  28.1314910  70.2947580  10.7376210
  21.3664640  55.8890490   4.4335580  21.2379270  55.8808390   5.3820500
  20.5426660  56.2273580   4.0826590  29.0417550  69.0591530   9.9082810
  29.6839780  68.3584690  10.0214980  29.5666900  69.8389970   9.7279700
  30.8155170  69.8586430  13.1118870  31.1511410  70.4453120  13.7896790
  29.8955510  69.7279140  13.3416660  18.3658570  57.6481610  13.8942280
  17.6517090  57.8478530  14.4994890  18.7853610  56.8721180  14.2657080
  26.6443750  69.9077760  16.2806930  26.3240620  69.1887000  16.8252620
  25.9702110  70.5832830  16.3542990  29.8597350  60.1403920  11.6443730
  30.2278170  59.3199130  11.9723300  28.9995550  60.2005810  12.0599380
  33.2259380  59.0960860   2.4531290  32.5972540  59.2006530   1.7389520
  32.7311300  59.3157640   3.2425170  25.1943410  61.3746810   3.8689170
  24.4859560  61.8433150   4.3102780  25.4787890  60.7168820   4.5034360
  26.8199340  62.7943510  11.8681700  27.3184590  63.2689330  12.5333550
  26.9622290  61.8707030  12.0751730  29.2258840  58.0997470   5.3084960
  29.1026620  58.1183600   4.3594470  30.1743400  58.1476410   5.4283360
  34.0266200  59.0111470  12.7110090  33.5239800  59.7516870  13.0503900
  34.8422860  59.3995470  12.3946880  32.3188210  64.2544650   6.1571450
  31.3778350  64.2694880   6.3319140  32.6332280  63.4680610   6.6031750
  18.6776800  69.5858280   3.3784350  17.7516580  69.8279420   3.3689760
  19.1433230  70.4132540   3.2569100  29.6354230  68.8110650  16.6403830
  29.0292390  68.8342250  15.8999580  29.3308340  68.0793690  17.1771080
  18.5187410  65.1904240  15.6364470  19.0226430  64.6111520  16.2080700
  17.7794830  65.4744470  16.1740840  25.5725350  66.5975230  15.1699990
  24.8071020  67.1660230  15.0854660  25.7541310  66.3051440  14.2768220
  32.7148700  68.3280560  15.7275010  33.4558170  68.6656320  15.2242470
  31.9521380  68.4972620  15.1744780  20.5510490  63.3333830  16.5314540
  20.5915830  63.0347700  17.4399770  21.4055990  63.7341440  16.3722060
  22.4916300  61.9125930  14.4989030  21.9612760  61.4216880  13.8712370
  23.1604370  62.3410130  13.9646960  31.3894360  66.3795390  14.2630220
  31.8035380  66.5340470  15.1120640  30.4545360  66.5050610  14.4256000
  31.8616530  63.7191550  16.2669370  32.4437300  62.9643870  16.1789850
  32.0378300  64.2498990  15.4900850  22.9788600  58.8788300  14.5786320
  22.8845470  58.2609050  13.8537190  22.3985990  59.6054590  14.3516230
  25.7450040  57.4361540  11.6113710  25.2967340  57.4585800  10.7659260
  25.1115240  57.0380560  12.2084010  26.1509590  66.3315870  12.2326150
  26.5697700  67.1748600  12.0602390  25.2318220  66.4687910  12.0032930
  28.4873490  64.0632050  13.6163990  28.6069700  63.4673190  14.3558830
  29.3467490  64.1001740  13.1965290  30.8261390  64.6169240  12.1926500
  30.2996610  65.1411860  11.5891640  31.1692730  65.2496630  12.8236230
  25.2542260  60.6053400  14.8739810  25.8441950  60.2969250  15.5617630
  24.4362500  60.1333150  15.0299710  30.0735690  60.2219210  15.1072830
  29.3851210  59.5600750  15.0422820  30.7941710  59.7757480  15.5521290
  18.2606510  71.1994680   6.9104150  18.5909520  70.3315740   6.6782790
  18.6897510  71.4053200   7.7409110  22.8568430  69.5303690   4.5706120
  22.5563970  69.4068660   5.4710030  22.7505920  68.6712280   4.1621850
  35.0816810  66.0547570   1.7767000  35.8435720  66.6244220   1.8826690
  35.0971180  65.4874770   2.5475310  18.5821150  64.5785500   6.0074660
  17.9269990  64.3097140   5.3634360  19.4199100  64.4689980   5.5576640
  36.0876780  66.9097670   6.6208930  36.4585610  66.1264990   6.2144900
  36.7278710  67.5986770   6.4426230  33.0710540  68.2934250  12.0339250
  32.2570380  68.7231410  12.2965040  33.4784740  68.9052660  11.4208300
  35.0301320  64.2850930   3.9268950  34.6544920  63.5178860   3.4950240
  34.3004440  64.6673630   4.4143880  19.6197080  64.9638070  10.5478000
  19.9870120  64.8765470  11.4274020  19.0507900  64.2004620  10.4484860
  34.4200940  63.4322450  13.5608470  34.1887030  63.2035200  12.6606420
  34.6805490  64.3522000  13.5153360  19.1713080  61.8747160  14.4536420
  18.2769130  61.8413920  14.7930130  19.7110630  62.0733950  15.2187670
  32.8589010  58.6578880  16.3388170  33.7359190  58.6662280  16.7222170
  32.8709850  57.9209720  15.7280520  34.3052280  62.5108420   7.2276190
  34.8289760  62.0171070   6.5966360  34.8911700  62.6458780   7.9723760
  34.4842000  62.5948290  10.7495740  33.5344710  62.5611830  10.8640730
  34.6655010  63.5048400  10.5145510  33.7952250  61.7681770   3.1668600
  34.2911370  61.5352640   3.9517480  33.5968320  60.9293610   2.7506240
  19.6752790  56.1495490   8.8019640  20.3228980  55.5992870   8.3614800
  20.0954630  56.4038640   9.6235450  35.2239410  60.4042720   5.7006280
  35.1138690  60.2498760   6.6388550  35.9847000  59.8763660   5.4581690
  33.5705130  56.3436850  12.1589280  34.2077350  56.9570990  12.5248470
  33.7180020  56.3797510  11.2138510  19.4284790  56.3051160  11.5444960
  19.0799610  56.7614980  12.3103140  19.0972490  55.4108290  11.6267390
  21.0349160  69.4770760  15.7098150  20.9918790  69.1063670  16.5912610
  21.1660170  70.4148330  15.8499970  24.7355190  71.0330350  11.3107870
  24.4946550  71.3004910  10.4238390  25.6757830  71.2036080  11.3658730
  26.9409610  57.4963040  15.0664380  26.8798500  58.0884870  15.8159790
  27.8809990  57.3889000  14.9214640  29.5784170  57.1533100  14.7056670
  30.1924580  57.4712390  14.0437750  30.1233730  56.6681690  15.3252530
  20.1005430  55.8327360  14.8195730  20.6488420  55.6515410  14.0561840
  20.1660740  55.0421470  15.3552040  30.3192210  55.7165240  11.0325960
  29.4452050  56.0500350  10.8298890  30.2102960  55.2438420  11.8577830
  31.2264190  57.9236110  12.4167680  30.8977550  57.1087870  12.0369410
  32.1746490  57.8805920  12.2933370  20.5049420  69.7891390  11.7803970
  19.7783480  69.1696680  11.7129920  20.5658570  70.1832000  10.9102050
  28.0667030  56.6335080   9.9718870  27.2838820  57.1080580  10.2515630
  27.7729960  55.7289910   9.8632050  32.6188100  57.3358180   8.0167960
  33.0596190  57.2803280   7.1689560  32.3495690  58.2516190   8.0878140
  34.4826670  56.9673420   6.0276780  34.4215070  56.0234640   5.8807800
  35.2618700  57.0753510   6.5730240  19.4107440  56.9382560   2.4932590
  20.1686800  57.0511440   1.9196620  18.9484610  57.7751760   2.4476020
  25.9521250  59.0521830   5.4834900  25.1395760  58.6778720   5.1430780
  26.4562890  58.2966910   5.7856090  30.4546230  55.7164280   6.7217970
  31.0575600  56.2884490   7.1966490  29.7139220  56.2803720   6.4991870
  33.5980830  56.1185840   1.9958250  33.7931460  57.0169290   2.2625680
  32.8110700  55.8872920   2.4891200  23.9770430  57.2021750   4.0879950
  23.3473170  56.5009060   4.2550080  23.4375570  57.9625880   3.8713110
  24.1025990  56.4805730  16.5232440  23.8210260  56.9839330  15.7593260
  24.4845690  55.6827480  16.1574570  30.7041450  55.8959310  17.1012910
  30.5906900  56.2153920  17.9964430  31.5211190  56.2971820  16.8050190
  29.6099600  45.1408290  62.5621610  29.5293650  44.2262900  62.2913320
  29.1964020  45.6375360  61.8561320  27.7417640  46.9187310  64.4430880
  26.9659740  46.4387750  64.7329450  28.3930570  46.2392960  64.2687040
  21.7583470  47.2307120  65.3206640  20.9268350  46.9755830  65.7203150
  22.3664450  47.3017890  66.0564560  31.7625070  51.3247500  63.2230010
  31.3006600  50.5534740  63.5517180  32.5750620  51.3513570  63.7282460
  21.7384730  51.2647210  65.5164660  22.0412770  50.3744950  65.3374880
  22.4828320  51.8217430  65.2886910  20.1675420  42.1909010  59.1049030
  19.2792120  42.5324980  59.0028910  20.4516610  41.9909330  58.2129860
  18.1308430  44.7914660  64.9888730  18.7024540  44.0236860  64.9892370
  18.1309970  45.0903420  64.0795340  27.9888380  53.6105510  62.8434000
  27.3699820  54.0663010  62.2728440  28.8440160  53.7656970  62.4423700
  27.1826630  49.5944500  64.4501040  27.1134910  48.6534440  64.2890170
  27.9446490  49.6845910  65.0223610  19.3733300  40.1999020  66.7757660
  19.1936140  39.3024770  67.0560420  18.9713380  40.7470890  67.4504610
  28.2131800  42.4014880  64.6769970  28.5896620  41.5286760  64.5643640
  28.1151310  42.7373580  63.7860410  22.3436810  40.7740510  60.1387410
  22.4503560  41.6744240  60.4456170  21.4329170  40.7258480  59.8482060
  31.9955920  39.8965320  61.6098310  32.8165540  39.4061890  61.6523790
  32.0290000  40.4862980  62.3630150  19.9919970  42.6959520  65.3840000
  20.6730080  42.9597890  66.0027400  19.6768020  41.8560390  65.7178010
  24.1844540  43.7426880  64.4712590  24.6922760  44.2407850  65.1117610
  24.7157780  42.9662080  64.2951950  36.2855470  41.9132070  68.1741940
  35.5807640  42.3013780  67.6557050  36.5513390  42.6082360  68.7762870
  22.4680640  38.3825440  68.7376010  22.4699080  38.8997830  67.9321910
  21.6384950  37.9055620  68.7145940  28.8551730  48.4944750  60.2365910
  28.2369000  48.9594200  59.6728630  29.3674980  49.1872230  60.6535420
  23.7183490  48.0220620  66.9149510  23.3852870  48.6489540  67.5570580
  23.8950170  48.5482500  66.1351180  32.2317400  41.8365700  64.3825850
  31.5272970  42.1250590  64.9628960  32.5929560  42.6465810  64.0225410
  22.1495970  40.0935400  66.7446460  22.4912780  40.9377450  66.4500330
  21.2111780  40.2419140  66.8611800  22.9302590  49.9901420  68.7298690
  23.5476590  50.6652500  68.4483140  22.0695710  50.3989400  68.6386190
  18.2234930  49.1801280  57.6105540  17.8462910  49.6688380  56.8790440
  18.4808000  49.8526560  58.2412070  33.8480180  51.4540830  66.6453330
  33.1643700  52.1239940  66.6370000  34.3874470  51.6521480  65.8798190
  35.3004320  41.2820490  64.7735060  34.3529230  41.3159470  64.9050490
  35.6254310  42.0959440  65.1584420  25.8323860  37.5817670  63.0691050
  26.1398840  37.0264560  62.3526550  24.9024560  37.7162130  62.8864040
  31.3838920  53.2984960  65.3598510  31.3966080  52.8947250  64.4920770
  30.8314140  54.0732250  65.2559940  32.6784340  50.0201180  60.4488680
  32.5680670  49.0775510  60.5738100  32.6752590  50.3816820  61.3351440
  30.7824360  48.2014800  66.6881120  31.1993150  47.9874910  65.8534580
  31.5064180  48.4587590  67.2589740  28.2204620  45.6466500  59.8051170
  27.2933900  45.5803880  60.0339640  28.3729440  46.5846630  59.6906410
  28.2073700  41.9183500  56.8018330  27.2677370  42.0797460  56.8870790
  28.5256960  42.6369180  56.2554320  34.7286460  46.6002020  66.7797360
  33.9005090  46.6695110  66.3047490  35.3236940  47.1856330  66.3113190
  32.2501910  47.2086800  60.3086420  31.6314330  46.8706350  59.6612720
  32.2326360  46.5646560  61.0165610  31.6928470  43.3871340  67.7252230
  31.2799650  44.2125050  67.9792220  30.9604420  42.8016380  67.5328590
  23.8261260  46.1731240  62.5870900  23.4218260  45.4608490  62.0916800
  23.9124380  45.8284480  63.4758940  24.2942960  49.8598800  64.7510110
  23.9971250  49.2544270  64.0717890  25.2442780  49.8976110  64.6399470
  22.5389880  42.9474450  66.3669940  23.0904470  43.0569790  65.5923190
  23.0533390  43.3212050  67.0825170  32.3828570  53.4330670  68.4133210
  31.9059130  54.2402860  68.2205820  31.6990360  52.7809000  68.5659420
  30.4266610  46.4473610  57.3159170  30.8659890  45.6096040  57.1696990
  31.1395030  47.0803010  57.4023310  28.5361990  51.3869680  61.2840410
  28.9757900  52.1294010  60.8695800  28.4748880  51.6296250  62.2079370
  34.0083750  37.7016420  55.6300210  33.6956410  37.7943250  56.5299280
  34.7696220  38.2797450  55.5797640  20.5265890  45.0676220  60.0877550
  20.4063490  45.7938310  59.4758820  20.2166780  44.2979130  59.6105460
  18.1651260  48.2391360  65.8946190  18.2431680  48.3740130  64.9501910
  18.7792940  47.5307250  66.0874310  19.4098890  49.9391550  62.3052370
  19.0026970  50.0806140  61.4505970  20.3011900  49.6551710  62.1023580
  29.2277770  54.0883460  69.2119420  29.7422440  53.9991470  70.0141850
  28.3846850  54.4343160  69.5047330  31.2032170  54.3738800  58.6403420
  31.0433310  54.0841740  59.5385250  31.0378880  53.5978930  58.1048650
  23.6820550  54.1537330  60.4175040  23.5063030  53.2372870  60.2042840
  22.8276290  54.5124620  60.6572840  30.9058300  51.8826360  57.2001420
  30.2123460  51.8803650  56.5403700  31.6481160  51.4585680  56.7695590
  30.4708230  53.5089070  61.2749910  30.9265180  52.7278450  61.5888530
  30.8100750  54.2195890  61.8191090  18.2210780  49.2805530  68.4340650
  18.3841820  48.8110890  67.6160020  18.6863230  48.7729090  69.0989490
  22.9929550  38.4111290  63.4701220  22.5497700  39.1920830  63.1385740
  23.5514540  38.7341180  64.1772160  27.2799360  41.2779810  69.0736540
  26.8178730  41.4862830  69.8856480  26.8777470  40.4639160  68.7707210
  26.1088370  38.0321990  58.3507050  25.4842550  38.0281860  59.0760360
  26.0218490  37.1652950  57.9543020  25.0305450  38.9558620  65.3290820
  25.3277780  39.8621450  65.2482840  25.5791010  38.4677400  64.7150390
  22.7843770  43.5344860  61.1982470  22.5584690  43.3182030  62.1029090
  22.0036300  43.9673320  60.8528440  30.0141530  43.5408230  59.7973120
  29.4150420  44.2644030  59.6136740  30.5621140  43.4785010  59.0149570
  28.6206400  42.1771770  61.8276400  29.0135970  42.4943970  61.0145090
  28.9823250  41.2983650  61.9420920  20.3553520  40.8444110  70.0176520
  19.9616910  41.6919320  70.2249300  19.6671920  40.2070480  70.2085160
  17.6570570  38.7672570  64.0506600  17.3683620  39.3375430  64.7631580
  18.4016330  38.2877020  64.4137830  17.8440800  42.7092690  55.2609320
  17.7615470  43.6523450  55.4024310  17.4923860  42.5667600  54.3821670
  29.2061540  44.7677520  65.9227180  28.4742660  45.2764330  66.2717280
  28.8085880  43.9507500  65.6215960  25.6438930  41.4431720  64.3279670
  25.6474990  41.0021670  63.4784210  26.5390050  41.7649050  64.4351490
  21.4941310  41.3258210  63.2873880  21.1541360  41.8033440  64.0440930
  20.7318630  40.8723330  62.9274980  25.7059080  42.4443800  57.3186430
  25.8271900  42.4030280  58.2672250  25.3207590  43.3067950  57.1633160
  29.6687450  40.2211200  65.3350120  29.6860190  40.6719850  66.1791970
  29.4203030  39.3216840  65.5483560  24.7180580  44.7544940  56.7169730
  24.1497480  44.3063190  56.0905640  25.4269580  45.1137720  56.1834880
  25.9446900  45.5033500  66.0745080  26.3117030  45.0292070  66.8206420
  25.7551960  46.3775070  66.4153420  18.8087390  40.2477190  62.2038550
  18.5234310  39.8832860  63.0417170  18.7466250  39.5157650  61.5901690
  23.7346270  44.5442140  68.3929290  23.4303340  45.4234120  68.6179650
  24.6892730  44.6041930  68.4286730  22.2628060  48.7503130  58.9896140
  21.4890320  48.2100750  58.8294860  22.9922690  48.2309740  58.6513900
  33.0216040  47.7468490  64.7822530  33.7415160  48.2423780  64.3918640
  32.8197860  47.0686380  64.1376400  28.4825980  39.1406450  58.9251920
  27.6690590  38.6419620  58.8497230  28.2887930  39.9804700  58.5088270
  31.1974370  43.5126100  57.2214080  32.0853990  43.8243330  57.0465420
  31.1679460  42.6398350  56.8294660  22.3065460  48.4183510  62.6274950
  22.8244130  47.6151770  62.5731840  21.8549480  48.3562650  63.4691780
  27.1934960  49.6849790  57.9002250  27.5350660  50.4292020  57.4045570
  26.3647670  49.9980910  58.2627080  19.7910000  45.3844880  69.5400650
  19.4324940  46.0498730  70.1273990  19.4964560  44.5528430  69.9113270
  33.4688640  44.8237940  56.6893940  33.3852360  45.2552160  55.8390380
  34.1882830  45.2836290  57.1220760  34.5462780  47.2805460  69.7663910
  33.8210970  47.8734240  69.5693300  35.0738240  47.2729000  68.9677280
  34.4975890  51.6780200  59.4176070  33.8552050  51.0235820  59.6919790
  34.1106550  52.0835290  58.6416740  30.0762370  49.0065630  63.2647760
  30.4286190  48.4093760  62.6049130  29.1924700  48.6809860  63.4356010
  26.1625650  49.7663320  60.6718170  26.8496780  50.3132530  61.0525760
  25.3758070  50.3104050  60.7067780  18.3018050  45.3836140  56.1635250
  19.1712900  45.6660940  56.4471170  17.8108370  46.1972010  56.0484060
  25.4652860  46.7709350  60.2843530  25.9215640  47.5814600  60.5103720
  25.1141070  46.4532490  61.1162020  27.7685470  52.2815690  67.5135830
  28.4127690  52.4875070  68.1909250  28.1314910  51.5204090  67.0606680
  21.3664640  37.1147000  60.7566050  21.2379270  37.1064900  61.7050970
  20.5426660  37.4530090  60.4057060  29.0417550  50.2848040  66.2313280
  29.6839780  49.5841200  66.3445450  29.5666900  51.0646480  66.0510170
  32.8873270  50.5696660  55.9552420  32.6610850  49.8527100  56.5477060
  32.4969470  50.3209100  55.1174170  30.8155170  51.0842940  69.4349340
  31.1511410  51.6709630  70.1127260  29.8955510  50.9535650  69.6647130
  18.6689300  54.5963520  56.7296880  19.0286940  55.1952860  56.0754150
  18.5281640  55.1423410  57.5031910  32.4689520  48.4868600  57.6166580
  32.1811220  48.9481290  58.4044460  33.2641690  48.0266370  57.8850800
  24.6857920  51.9794720  57.5470550  24.6768020  52.7124410  56.9315060
  23.7656280  51.7326300  57.6397510  20.2864560  47.2009610  58.2917310
  19.6792510  47.9408510  58.3012610  20.7613910  47.2908970  57.4655510
  29.8597350  41.3660430  67.9674200  30.2278170  40.5455640  68.2953770
  28.9995550  41.4262320  68.3829850  33.2259380  40.3217370  58.7761760
  32.5972540  40.4263040  58.0619990  32.7311300  40.5414150  59.5655640
  27.6717520  52.0422960  56.2095740  27.7729500  51.8386950  55.2797720
  26.7719260  51.7881240  56.4143520  25.1943410  42.6003320  60.1919640
  24.4859560  43.0689660  60.6333250  25.4787890  41.9425330  60.8264830
  26.8199340  44.0200020  68.1912170  27.3184590  44.4945840  68.8564020
  26.9622290  43.0963540  68.3982200  29.2258840  39.3253980  61.6315430
  29.1026620  39.3440110  60.6824940  30.1743400  39.3732920  61.7513830
  26.3135630  54.5609280  60.9043410  26.5677130  54.5230670  59.9822780
  25.3648110  54.4342610  60.8971660  23.3978430  40.9088400  57.5670350
  24.2468960  41.3458550  57.5010540  23.0309700  41.2208660  58.3942410
  34.0266200  40.2367980  69.0340560  33.5239800  40.9773380  69.3734370
  34.8422860  40.6251980  68.7177350  32.3188210  45.4801160  62.4801920
  31.3778350  45.4951390  62.6549610  32.6332280  44.6937120  62.9262220
  22.2969850  47.1620760  56.0405880  23.0633120  47.0502120  56.6031310
  22.3744540  46.4658730  55.3882650  20.9916610  44.5945830  56.7238770
  21.0720200  43.6473340  56.8356170  21.8836360  44.9252710  56.8299430
  34.3213790  52.6510010  64.1556180  34.4461210  53.4741180  64.6279990
  35.1879350  52.4400740  63.8080330  21.7931320  54.7441220  63.8273310
  22.5293800  54.1956680  64.0981880  22.1772240  55.6097230  63.6879300
  18.6776800  50.8114790  59.7014820  17.7516580  51.0535930  59.6920230
  19.1433230  51.6389050  59.5799570  24.9033630  53.9171530  55.6498880
  25.6962240  54.2060360  55.1980670  24.3837980  53.4863700  54.9711360
  33.9563800  53.1441660  57.0735620  33.6705310  52.7306800  56.2589800
  33.7583350  54.0729370  56.9536140  25.4211030  49.1374940  55.5141230
  25.3161670  48.5227290  56.2402610  25.2535250  48.6140830  54.7304240
  28.6613760  48.1994970  56.1183220  28.1123860  48.6464270  56.7625960
  29.2833020  47.6944220  56.6420890  24.3288880  47.1585890  58.0148520
  24.7505300  46.9925760  58.8579910  24.4539720  46.3486120  57.5203660
  26.8416520  46.1823500  55.2625620  27.3622180  45.4672520  54.8966770
  27.4884920  46.8209370  55.5626130  25.7450040  38.6618050  67.9344180
  25.2967340  38.6842310  67.0889730  25.1115240  38.2637070  68.5314480
  26.1509590  47.5572380  68.5556620  26.5697700  48.4005110  68.3832860
  25.2318220  47.6944420  68.3263400  30.8261390  45.8425750  68.5156970
  30.2996610  46.3668370  67.9122110  31.1692730  46.4753140  69.1466700
  23.2247780  43.2319120  54.9606680  23.0236840  42.3686480  55.3220020
  23.0539830  43.1452480  54.0228280  24.0017010  53.8625390  69.6714350
  23.4638100  54.5871450  69.3523050  24.2550970  53.3855730  68.8811690
  30.7036090  38.0427350  57.4893560  30.9838380  37.1995250  57.8452980
  29.9301820  38.2750460  58.0032310  22.0230580  40.3319740  54.9484560
  22.3256480  40.3387170  54.0403710  22.7625170  39.9817600  55.4452220
  26.8579220  55.0976600  69.9301000  26.7837920  56.0011740  70.2373370
  25.9558060  54.7788500  69.9023070  25.2415510  39.2754360  55.9340760
  24.8937510  38.5978350  55.3543210  25.4428280  38.8143870  56.7484150
  27.4064550  54.2635110  57.5527360  28.3015340  54.6020080  57.5746120
  27.4382180  53.5414520  56.9251640  21.0460710  49.6362160  55.7814360
  21.4835580  50.1791830  56.4371940  21.5308440  48.8109110  55.7910700
  18.2606510  52.4251190  63.2334620  18.5909520  51.5572250  63.0013260
  18.6897510  52.6309710  64.0639580  22.8568430  50.7560200  60.8936590
  22.5563970  50.6325170  61.7940500  22.7505920  49.8968790  60.4852320
  18.7496720  53.2921780  65.9716250  18.3127710  53.4722580  66.8040400
  19.3174400  54.0496400  65.8297970  35.6260350  50.5356600  55.5963270
  34.7953310  50.6033250  56.0670500  35.8032180  51.4260720  55.2930130
  35.0816810  47.2804080  58.0997470  35.8435720  47.8500730  58.2057160
  35.0971180  46.7131280  58.8705780  18.5821150  45.8042010  62.3305130
  17.9269990  45.5353650  61.6864830  19.4199100  45.6946490  61.8807110
  36.0876780  48.1354180  62.9439400  36.4585610  47.3521500  62.5375370
  36.7278710  48.8243280  62.7656700  33.0710540  49.5190760  68.3569720
  32.2570380  49.9487920  68.6195510  33.4784740  50.1309170  67.7438770
  35.1335980  47.5738450  55.2569990  35.4084820  48.4817330  55.1289210
  34.9446720  47.5100980  56.1931980  31.5311590  40.5983300  56.5523620
  31.9496470  40.4114280  55.7120280  31.2247650  39.7462350  56.8626550
  35.0301320  45.5107440  60.2499420  34.6544920  44.7435370  59.8180710
  34.3004440  45.8930140  60.7374350  19.6197080  46.1894580  66.8708470
  19.9870120  46.1021980  67.7504490  19.0507900  45.4261130  66.7715330
  34.4200940  44.6578960  69.8838940  34.1887030  44.4291710  68.9836890
  34.6805490  45.5778510  69.8383830  17.7959230  43.0140940  58.2730460
  16.8923310  43.2771140  58.0982120  18.2799850  43.2852110  57.4930420
  34.3052280  43.7364930  63.5506660  34.8289760  43.2427580  62.9196830
  34.8911700  43.8715290  64.2954230  34.4842000  43.8204800  67.0726210
  33.5344710  43.7868340  67.1871200  34.6655010  44.7304910  66.8375980
  20.3386440  42.0706480  56.1824840  21.0478140  41.6489700  55.6972120
  19.6226380  42.1381710  55.5508190  19.9860600  38.1245810  55.2227490
  20.7088730  38.6654750  55.5408710  20.2585120  37.8509230  54.3469030
  33.7952250  42.9938280  59.4899070  34.2911370  42.7609150  60.2747950
  33.5968320  42.1550120  59.0736710  19.6752790  37.3752000  65.1250110
  20.3228980  36.8249380  64.6845270  20.0954630  37.6295150  65.9465920
  35.2239410  41.6299230  62.0236750  35.1138690  41.4755270  62.9619020
  35.9847000  41.1020170  61.7812160  33.5705130  37.5693360  68.4819750
  34.2077350  38.1827500  68.8478940  33.7180020  37.6054020  67.5368980
  36.1129680  39.4607150  55.2642890  37.0378990  39.3288330  55.0561180
  36.0905470  39.5399970  56.2179340  36.1868170  40.2317810  57.8899600
  35.3919670  40.1662930  58.4192510  36.3911450  41.1668450  57.8784950
  33.1286590  54.2709360  61.8837990  33.7245660  53.9493930  61.2072410
  33.3864740  53.7981180  62.6751260  19.4284790  37.5307670  67.8675430
  19.0799610  37.9871490  68.6333610  19.0972490  36.6364800  67.9497860
  24.7355190  52.2586860  67.6338340  24.4946550  52.5261420  66.7468860
  25.6757830  52.4292590  67.6889200  35.9959350  54.2781240  68.4348980
  35.5017630  54.6750110  67.7176110  35.3872640  53.6530450  68.8286260
  20.8737190  53.6489520  69.1526400  20.2797510  53.5174220  69.8916440
  20.8661030  52.8127660  68.6868500  30.3192210  36.9421750  67.3556430
  29.4452050  37.2756860  67.1529360  30.2102960  36.4694930  68.1808300
  31.2264190  39.1492620  68.7398150  30.8977550  38.3344380  68.3599880
  32.1746490  39.1062430  68.6163840  33.6798800  54.9204660  65.7135720
  33.2201770  55.6720470  65.3393740  33.0511260  54.2011130  65.6550520
  20.5049420  51.0147900  68.1034440  19.7783480  50.3953190  68.0360390
  20.5658570  51.4088510  67.2332520  24.1094520  53.2292900  64.8883850
  24.6259540  52.6180260  64.3632110  24.7591900  53.7321680  65.3794860
  26.8490020  54.1201390  65.7152830  27.1367830  53.8655690  64.8385840
  27.3613240  53.5678750  66.3058400  28.0667030  37.8591590  66.2949340
  27.2838820  38.3337090  66.5746100  27.7729960  36.9546420  66.1862520
  32.6188100  38.5614690  64.3398430  33.0596190  38.5059790  63.4920030
  32.3495690  39.4772700  64.4108610  34.4826670  38.1929930  62.3507250
  34.4215070  37.2491150  62.2038270  35.2618700  38.3010020  62.8960710
  18.7879420  54.3322290  61.3131200  18.6201460  53.6992970  62.0113090
  17.9213930  54.5381690  60.9625390  19.4107440  38.1639070  58.8163060
  20.1686800  38.2767950  58.2427090  18.9484610  39.0008270  58.7706490
  25.9521250  40.2778340  61.8065370  25.1395760  39.9035230  61.4661250
  26.4562890  39.5223420  62.1086560  30.4546230  36.9420790  63.0448440
  31.0575600  37.5141000  63.5196960  29.7139220  37.5060230  62.8222340
  33.5980830  37.3442350  58.3188720  33.7931460  38.2425800  58.5856150
  32.8110700  37.1129430  58.8121670  20.3942120  53.0255520  58.7581340
  19.8689740  53.4063550  58.0543300  20.3186700  53.6506290  59.4791050
  21.7832590  38.6903120  57.3565030  22.3125350  37.9032920  57.2272980
  22.4160910  39.3694310  57.5900560  23.9770430  38.4278260  60.4110420
  23.3473170  37.7265570  60.5780550  23.4375570  39.1882390  60.1943580
  35.1507440  54.5843060  60.0795280  35.3259630  53.8980800  59.4356200
  34.4529010  55.1090110  59.6871950  22.9935090  54.9737900  57.6330590
  23.7253910  54.6897180  57.0854480  23.2528760  54.7351180  58.5229970
  22.1549880  51.0902630  57.6376920  21.5258760  51.5587730  58.1862750
  22.2697710  50.2451850  58.0723110  29.6099600  45.1408290  43.7878120
  29.5293650  44.2262900  43.5169830  29.1964020  45.6375360  43.0817830
  27.7417640  46.9187310  45.6687390  26.9659740  46.4387750  45.9585960
  28.3930570  46.2392960  45.4943550  21.7583470  47.2307120  46.5463150
  20.9268350  46.9755830  46.9459660  22.3664450  47.3017890  47.2821070
  31.7625070  51.3247500  44.4486520  31.3006600  50.5534740  44.7773690
  32.5750620  51.3513570  44.9538970  21.7384730  51.2647210  46.7421170
  22.0412770  50.3744950  46.5631390  22.4828320  51.8217430  46.5143420
  20.1675420  42.1909010  40.3305540  19.2792120  42.5324980  40.2285420
  20.4516610  41.9909330  39.4386370  18.1308430  44.7914660  46.2145240
  18.7024540  44.0236860  46.2148880  18.1309970  45.0903420  45.3051850
  27.9888380  53.6105510  44.0690510  27.3699820  54.0663010  43.4984950
  28.8440160  53.7656970  43.6680210  27.1826630  49.5944500  45.6757550
  27.1134910  48.6534440  45.5146680  27.9446490  49.6845910  46.2480120
  19.3733300  40.1999020  48.0014170  19.1936140  39.3024770  48.2816930
  18.9713380  40.7470890  48.6761120  28.2131800  42.4014880  45.9026480
  28.5896620  41.5286760  45.7900150  28.1151310  42.7373580  45.0116920
  22.3436810  40.7740510  41.3643920  22.4503560  41.6744240  41.6712680
  21.4329170  40.7258480  41.0738570  31.9955920  39.8965320  42.8354820
  32.8165540  39.4061890  42.8780300  32.0290000  40.4862980  43.5886660
  19.9919970  42.6959520  46.6096510  20.6730080  42.9597890  47.2283910
  19.6768020  41.8560390  46.9434520  24.1844540  43.7426880  45.6969100
  24.6922760  44.2407850  46.3374120  24.7157780  42.9662080  45.5208460
  36.2855470  41.9132070  49.3998450  35.5807640  42.3013780  48.8813560
  36.5513390  42.6082360  50.0019380  22.4680640  38.3825440  49.9632520
  22.4699080  38.8997830  49.1578420  21.6384950  37.9055620  49.9402450
  28.8551730  48.4944750  41.4622420  28.2369000  48.9594200  40.8985140
  29.3674980  49.1872230  41.8791930  23.7183490  48.0220620  48.1406020
  23.3852870  48.6489540  48.7827090  23.8950170  48.5482500  47.3607690
  32.2317400  41.8365700  45.6082360  31.5272970  42.1250590  46.1885470
  32.5929560  42.6465810  45.2481920  22.1495970  40.0935400  47.9702970
  22.4912780  40.9377450  47.6756840  21.2111780  40.2419140  48.0868310
  22.9302590  49.9901420  49.9555200  23.5476590  50.6652500  49.6739650
  22.0695710  50.3989400  49.8642700  18.2234930  49.1801280  38.8362050
  17.8462910  49.6688380  38.1046950  18.4808000  49.8526560  39.4668580
  33.8480180  51.4540830  47.8709840  33.1643700  52.1239940  47.8626510
  34.3874470  51.6521480  47.1054700  35.3004320  41.2820490  45.9991570
  34.3529230  41.3159470  46.1307000  35.6254310  42.0959440  46.3840930
  25.8323860  37.5817670  44.2947560  26.1398840  37.0264560  43.5783060
  24.9024560  37.7162130  44.1120550  31.3838920  53.2984960  46.5855020
  31.3966080  52.8947250  45.7177280  30.8314140  54.0732250  46.4816450
  32.6784340  50.0201180  41.6745190  32.5680670  49.0775510  41.7994610
  32.6752590  50.3816820  42.5607950  30.7824360  48.2014800  47.9137630
  31.1993150  47.9874910  47.0791090  31.5064180  48.4587590  48.4846250
  28.2204620  45.6466500  41.0307680  27.2933900  45.5803880  41.2596150
  28.3729440  46.5846630  40.9162920  28.2073700  41.9183500  38.0274840
  27.2677370  42.0797460  38.1127300  28.5256960  42.6369180  37.4810830
  34.7286460  46.6002020  48.0053870  33.9005090  46.6695110  47.5304000
  35.3236940  47.1856330  47.5369700  32.2501910  47.2086800  41.5342930
  31.6314330  46.8706350  40.8869230  32.2326360  46.5646560  42.2422120
  31.6928470  43.3871340  48.9508740  31.2799650  44.2125050  49.2048730
  30.9604420  42.8016380  48.7585100  23.8261260  46.1731240  43.8127410
  23.4218260  45.4608490  43.3173310  23.9124380  45.8284480  44.7015450
  24.2942960  49.8598800  45.9766620  23.9971250  49.2544270  45.2974400
  25.2442780  49.8976110  45.8655980  22.5389880  42.9474450  47.5926450
  23.0904470  43.0569790  46.8179700  23.0533390  43.3212050  48.3081680
  32.3828570  53.4330670  49.6389720  31.9059130  54.2402860  49.4462330
  31.6990360  52.7809000  49.7915930  23.3861390  49.5980490  52.6274420
  22.4889920  49.8220460  52.8747820  23.4114260  49.7215430  51.6785820
  30.4266610  46.4473610  38.5415680  30.8659890  45.6096040  38.3953500
  31.1395030  47.0803010  38.6279820  22.2132610  46.4693810  51.2031790
  22.0740380  47.3416610  51.5719190  21.3313970  46.1266620  51.0579730
  28.5361990  51.3869680  42.5096920  28.9757900  52.1294010  42.0952310
  28.4748880  51.6296250  43.4335880  24.0112960  52.4115510  53.4116940
  23.9828390  52.8158460  52.5445370  23.8477930  51.4825870  53.2488540
  20.5265890  45.0676220  41.3134060  20.4063490  45.7938310  40.7015330
  20.2166780  44.2979130  40.8361970  35.9627780  53.1942610  54.7081110
  36.4387500  53.6725500  55.3870190  36.5834940  53.1260100  53.9826610
  18.1651260  48.2391360  47.1202700  18.2431680  48.3740130  46.1758420
  18.7792940  47.5307250  47.3130820  19.4098890  49.9391550  43.5308880
  19.0026970  50.0806140  42.6762480  20.3011900  49.6551710  43.3280090
  35.3661030  50.3855460  51.8681120  35.4924090  50.1467340  50.9498300
  35.4082410  49.5540000  52.3403200  29.2277770  54.0883460  50.4375930
  29.7422440  53.9991470  51.2398360  28.3846850  54.4343160  50.7303840
  31.2032170  54.3738800  39.8659930  31.0433310  54.0841740  40.7641760
  31.0378880  53.5978930  39.3305160  23.6820550  54.1537330  41.6431550
  23.5063030  53.2372870  41.4299350  22.8276290  54.5124620  41.8829350
  30.9058300  51.8826360  38.4257930  30.2123460  51.8803650  37.7660210
  31.6481160  51.4585680  37.9952100  30.4708230  53.5089070  42.5006420
  30.9265180  52.7278450  42.8145040  30.8100750  54.2195890  43.0447600
  35.2185040  42.4387920  52.8330860  34.6029310  42.9467590  52.3046320
  34.8981460  41.5386250  52.7756800  18.2210780  49.2805530  49.6597160
  18.3841820  48.8110890  48.8416530  18.6863230  48.7729090  50.3246000
  22.9929550  38.4111290  44.6957730  22.5497700  39.1920830  44.3642250
  23.5514540  38.7341180  45.4028670  27.2799360  41.2779810  50.2993050
  26.8178730  41.4862830  51.1112990  26.8777470  40.4639160  49.9963720
  32.2803870  42.4988760  51.4289710  31.4297460  42.1994510  51.7498780
  32.1205660  42.7430770  50.5173530  29.3753580  43.9990510  53.5288500
  29.7006990  43.1654260  53.1890730  30.1633910  44.5219030  53.6766830
  26.1088370  38.0321990  39.5763560  25.4842550  38.0281860  40.3016870
  26.0218490  37.1652950  39.1799530  25.0305450  38.9558620  46.5547330
  25.3277780  39.8621450  46.4739350  25.5791010  38.4677400  45.9406900
  22.7843770  43.5344860  42.4238980  22.5584690  43.3182030  43.3285600
  22.0036300  43.9673320  42.0784950  30.0141530  43.5408230  41.0229630
  29.4150420  44.2644030  40.8393250  30.5621140  43.4785010  40.2406080
  25.2242980  44.4330440  53.0899250  25.1286580  43.4925170  52.9399650
  26.0674960  44.6545510  52.6947320  28.6206400  42.1771770  43.0532910
  29.0135970  42.4943970  42.2401600  28.9823250  41.2983650  43.1677430
  20.3553520  40.8444110  51.2433030  19.9616910  41.6919320  51.4505810
  19.6671920  40.2070480  51.4341670  26.9298570  40.9279080  54.3129770
  26.2396890  40.7351280  54.9475860  27.6730870  41.2113720  54.8454070
  17.6570570  38.7672570  45.2763110  17.3683620  39.3375430  45.9888090
  18.4016330  38.2877020  45.6394340  17.8440800  42.7092690  36.4865830
  17.7615470  43.6523450  36.6280820  17.4923860  42.5667600  35.6078180
  29.2061540  44.7677520  47.1483690  28.4742660  45.2764330  47.4973790
  28.8085880  43.9507500  46.8472470  25.6438930  41.4431720  45.5536180
  25.6474990  41.0021670  44.7040720  26.5390050  41.7649050  45.6608000
  21.4941310  41.3258210  44.5130390  21.1541360  41.8033440  45.2697440
  20.7318630  40.8723330  44.1531490  25.7059080  42.4443800  38.5442940
  25.8271900  42.4030280  39.4928760  25.3207590  43.3067950  38.3889670
  29.6687450  40.2211200  46.5606630  29.6860190  40.6719850  47.4048480
  29.4203030  39.3216840  46.7740070  24.7180580  44.7544940  37.9426240
  24.1497480  44.3063190  37.3162150  25.4269580  45.1137720  37.4091390
  33.0958200  37.6343380  52.3993010  33.4203970  36.9033040  52.9250990
  33.1314710  37.3157020  51.4974000  19.7949760  48.6556960  51.8192970
  19.4104550  48.0150630  52.4175930  20.1061950  49.3593080  52.3887700
  25.9446900  45.5033500  47.3001590  26.3117030  45.0292070  48.0462930
  25.7551960  46.3775070  47.6409930  18.8087390  40.2477190  43.4295060
  18.5234310  39.8832860  44.2673680  18.7466250  39.5157650  42.8158200
  23.7346270  44.5442140  49.6185800  23.4303340  45.4234120  49.8436160
  24.6892730  44.6041930  49.6543240  22.2628060  48.7503130  40.2152650
  21.4890320  48.2100750  40.0551370  22.9922690  48.2309740  39.8770410
  33.0216040  47.7468490  46.0079040  33.7415160  48.2423780  45.6175150
  32.8197860  47.0686380  45.3632910  28.4825980  39.1406450  40.1508430
  27.6690590  38.6419620  40.0753740  28.2887930  39.9804700  39.7344780
  28.4034840  47.8177550  51.8948040  28.3372150  46.8973220  51.6405630
  27.7739980  47.9152990  52.6092680  31.1974370  43.5126100  38.4470590
  32.0853990  43.8243330  38.2721930  31.1679460  42.6398350  38.0551170
  22.3065460  48.4183510  43.8531460  22.8244130  47.6151770  43.7988350
  21.8549480  48.3562650  44.6948290  27.1934960  49.6849790  39.1258760
  27.5350660  50.4292020  38.6302080  26.3647670  49.9980910  39.4883590
  19.7910000  45.3844880  50.7657160  19.4324940  46.0498730  51.3530500
  19.4964560  44.5528430  51.1369780  22.9923120  45.8429120  53.6496710
  22.6923260  45.9886300  52.7524530  23.7634360  45.2834410  53.5570100
  28.3351570  50.6398120  51.6451840  28.3496110  49.7079080  51.4270750
  27.6276670  50.7257880  52.2841610  33.4688640  44.8237940  37.9150450
  33.3852360  45.2552160  37.0646890  34.1882830  45.2836290  38.3477270
  34.5462780  47.2805460  50.9920420  33.8210970  47.8734240  50.7949810
  35.0738240  47.2729000  50.1933790  34.4975890  51.6780200  40.6432580
  33.8552050  51.0235820  40.9176300  34.1106550  52.0835290  39.8673250
  30.0762370  49.0065630  44.4904270  30.4286190  48.4093760  43.8305640
  29.1924700  48.6809860  44.6612520  26.1625650  49.7663320  41.8974680
  26.8496780  50.3132530  42.2782270  25.3758070  50.3104050  41.9324290
  18.3018050  45.3836140  37.3891760  19.1712900  45.6660940  37.6727680
  17.8108370  46.1972010  37.2740570  25.4652860  46.7709350  41.5100040
  25.9215640  47.5814600  41.7360230  25.1141070  46.4532490  42.3418530
  27.7685470  52.2815690  48.7392340  28.4127690  52.4875070  49.4165760
  28.1314910  51.5204090  48.2863190  21.3664640  37.1147000  41.9822560
  21.2379270  37.1064900  42.9307480  20.5426660  37.4530090  41.6313570
  29.0417550  50.2848040  47.4569790  29.6839780  49.5841200  47.5701960
  29.5666900  51.0646480  47.2766680  32.8873270  50.5696660  37.1808930
  32.6610850  49.8527100  37.7733570  32.4969470  50.3209100  36.3430680
  30.8155170  51.0842940  50.6605850  31.1511410  51.6709630  51.3383770
  29.8955510  50.9535650  50.8903640  18.6689300  54.5963520  37.9553390
  19.0286940  55.1952860  37.3010660  18.5281640  55.1423410  38.7288420
  18.3658570  38.8738120  51.4429260  17.6517090  39.0735040  52.0481870
  18.7853610  38.0977690  51.8144060  32.4689520  48.4868600  38.8423090
  32.1811220  48.9481290  39.6300970  33.2641690  48.0266370  39.1107310
  18.6531160  52.8618380  52.4295790  18.7622280  51.9213120  52.2891180
  18.0011720  53.1273130  51.7809520  26.6443750  51.1334270  53.8293910
  26.3240620  50.4143510  54.3739600  25.9702110  51.8089340  53.9029970
  24.6857920  51.9794720  38.7727060  24.6768020  52.7124410  38.1571570
  23.7656280  51.7326300  38.8654020  20.2864560  47.2009610  39.5173820
  19.6792510  47.9408510  39.5269120  20.7613910  47.2908970  38.6912020
  29.8597350  41.3660430  49.1930710  30.2278170  40.5455640  49.5210280
  28.9995550  41.4262320  49.6086360  27.6717520  52.0422960  37.4352250
  27.7729500  51.8386950  36.5054230  26.7719260  51.7881240  37.6400030
  25.1943410  42.6003320  41.4176150  24.4859560  43.0689660  41.8589760
  25.4787890  41.9425330  42.0521340  26.8199340  44.0200020  49.4168680
  27.3184590  44.4945840  50.0820530  26.9622290  43.0963540  49.6238710
  29.2258840  39.3253980  42.8571940  29.1026620  39.3440110  41.9081450
  30.1743400  39.3732920  42.9770340  26.3135630  54.5609280  42.1299920
  26.5677130  54.5230670  41.2079290  25.3648110  54.4342610  42.1228170
  23.3978430  40.9088400  38.7926860  24.2468960  41.3458550  38.7267050
  23.0309700  41.2208660  39.6198920  34.0266200  40.2367980  50.2597070
  33.5239800  40.9773380  50.5990880  34.8422860  40.6251980  49.9433860
  32.3188210  45.4801160  43.7058430  31.3778350  45.4951390  43.8806120
  32.6332280  44.6937120  44.1518730  22.2969850  47.1620760  37.2662390
  23.0633120  47.0502120  37.8287820  22.3744540  46.4658730  36.6139160
  20.9916610  44.5945830  37.9495280  21.0720200  43.6473340  38.0612680
  21.8836360  44.9252710  38.0555940  34.3213790  52.6510010  45.3812690
  34.4461210  53.4741180  45.8536500  35.1879350  52.4400740  45.0336840
  21.7931320  54.7441220  45.0529820  22.5293800  54.1956680  45.3238390
  22.1772240  55.6097230  44.9135810  18.6776800  50.8114790  40.9271330
  17.7516580  51.0535930  40.9176740  19.1433230  51.6389050  40.8056080
  20.7989600  53.9287290  54.2415400  21.6002330  54.2499340  54.6550800
  20.2841420  53.5682870  54.9635310  24.9033630  53.9171530  36.8755390
  25.6962240  54.2060360  36.4237180  24.3837980  53.4863700  36.1967870
  29.6354230  50.0367160  54.1890810  29.0292390  50.0598760  53.4486560
  29.3308340  49.3050200  54.7258060  31.0654600  53.7647450  52.8000220
  32.0176350  53.6805470  52.7500460  30.9182820  54.4289160  53.4734010
  33.9563800  53.1441660  38.2992130  33.6705310  52.7306800  37.4846310
  33.7583350  54.0729370  38.1792650  18.5187410  46.4160750  53.1851450
  19.0226430  45.8368030  53.7567680  17.7794830  46.7000980  53.7227820
  25.4211030  49.1374940  36.7397740  25.3161670  48.5227290  37.4659120
  25.2535250  48.6140830  35.9560750  25.5725350  47.8231740  52.7186970
  24.8071020  48.3916740  52.6341640  25.7541310  47.5307950  51.8255200
  28.6613760  48.1994970  37.3439730  28.1123860  48.6464270  37.9882470
  29.2833020  47.6944220  37.8677400  32.7148700  49.5537070  53.2761990
  33.4558170  49.8912830  52.7729450  31.9521380  49.7229130  52.7231760
  20.5510490  44.5590340  54.0801520  20.5915830  44.2604210  54.9886750
  21.4055990  44.9597950  53.9209040  24.3288880  47.1585890  39.2405030
  24.7505300  46.9925760  40.0836420  24.4539720  46.3486120  38.7460170
  22.4916300  43.1382440  52.0476010  21.9612760  42.6473390  51.4199350
  23.1604370  43.5666640  51.5133940  26.8416520  46.1823500  36.4882130
  27.3622180  45.4672520  36.1223280  27.4884920  46.8209370  36.7882640
  31.3894360  47.6051900  51.8117200  31.8035380  47.7596980  52.6607620
  30.4545360  47.7307120  51.9742980  31.8616530  44.9448060  53.8156350
  32.4437300  44.1900380  53.7276830  32.0378300  45.4755500  53.0387830
  22.9788600  40.1044810  52.1273300  22.8845470  39.4865560  51.4024170
  22.3985990  40.8311100  51.9003210  25.7450040  38.6618050  49.1600690
  25.2967340  38.6842310  48.3146240  25.1115240  38.2637070  49.7570990
  26.1509590  47.5572380  49.7813130  26.5697700  48.4005110  49.6089370
  25.2318220  47.6944420  49.5519910  28.4873490  45.2888560  51.1650970
  28.6069700  44.6929700  51.9045810  29.3467490  45.3258250  50.7452270
  30.8261390  45.8425750  49.7413480  30.2996610  46.3668370  49.1378620
  31.1692730  46.4753140  50.3723210  23.2247780  43.2319120  36.1863190
  23.0236840  42.3686480  36.5476530  23.0539830  43.1452480  35.2484790
  24.0017010  53.8625390  50.8970860  23.4638100  54.5871450  50.5779560
  24.2550970  53.3855730  50.1068200  25.2542260  41.8309910  52.4226790
  25.8441950  41.5225760  53.1104610  24.4362500  41.3589660  52.5786690
  30.0735690  41.4475720  52.6559810  29.3851210  40.7857260  52.5909800
  30.7941710  41.0013990  53.1008270  22.0230580  40.3319740  36.1741070
  22.3256480  40.3387170  35.2660220  22.7625170  39.9817600  36.6708730
  26.8579220  55.0976600  51.1557510  26.7837920  56.0011740  51.4629880
  25.9558060  54.7788500  51.1279580  25.2415510  39.2754360  37.1597270
  24.8937510  38.5978350  36.5799720  25.4428280  38.8143870  37.9740660
  27.4064550  54.2635110  38.7783870  28.3015340  54.6020080  38.8002630
  27.4382180  53.5414520  38.1508150  21.0460710  49.6362160  37.0070870
  21.4835580  50.1791830  37.6628450  21.5308440  48.8109110  37.0167210
  18.2606510  52.4251190  44.4591130  18.5909520  51.5572250  44.2269770
  18.6897510  52.6309710  45.2896090  22.8568430  50.7560200  42.1193100
  22.5563970  50.6325170  43.0197010  22.7505920  49.8968790  41.7108830
  18.7496720  53.2921780  47.1972760  18.3127710  53.4722580  48.0296910
  19.3174400  54.0496400  47.0554480  34.3858900  52.7938780  51.4850070
  33.7860890  52.8531340  50.7413990  34.5152800  51.8543760  51.6146920
  35.6260350  50.5356600  36.8219780  34.7953310  50.6033250  37.2927010
  35.8032180  51.4260720  36.5186640  35.0816810  47.2804080  39.3253980
  35.8435720  47.8500730  39.4313670  35.0971180  46.7131280  40.0962290
  18.5821150  45.8042010  43.5561640  17.9269990  45.5353650  42.9121340
  19.4199100  45.6946490  43.1063620  36.0876780  48.1354180  44.1695910
  36.4585610  47.3521500  43.7631880  36.7278710  48.8243280  43.9913210
  33.0710540  49.5190760  49.5826230  32.2570380  49.9487920  49.8452020
  33.4784740  50.1309170  48.9695280  35.1335980  47.5738450  36.4826500
  35.4084820  48.4817330  36.3545720  34.9446720  47.5100980  37.4188490
  35.0301320  45.5107440  41.4755930  34.6544920  44.7435370  41.0437220
  34.3004440  45.8930140  41.9630860  19.6197080  46.1894580  48.0964980
  19.9870120  46.1021980  48.9761000  19.0507900  45.4261130  47.9971840
  34.4200940  44.6578960  51.1095450  34.1887030  44.4291710  50.2093400
  34.6805490  45.5778510  51.0640340  19.1713080  43.1003670  52.0023400
  18.2769130  43.0670430  52.3417110  19.7110630  43.2990460  52.7674650
  32.8589010  39.8835390  53.8875150  33.7359190  39.8918790  54.2709150
  32.8709850  39.1466230  53.2767500  17.7959230  43.0140940  39.4986970
  16.8923310  43.2771140  39.3238630  18.2799850  43.2852110  38.7186930
  34.3052280  43.7364930  44.7763170  34.8289760  43.2427580  44.1453340
  34.8911700  43.8715290  45.5210740  34.4842000  43.8204800  48.2982720
  33.5344710  43.7868340  48.4127710  34.6655010  44.7304910  48.0632490
  20.3386440  42.0706480  37.4081350  21.0478140  41.6489700  36.9228630
  19.6226380  42.1381710  36.7764700  19.9860600  38.1245810  36.4484000
  20.7088730  38.6654750  36.7665220  20.2585120  37.8509230  35.5725540
  33.7952250  42.9938280  40.7155580  34.2911370  42.7609150  41.5004460
  33.5968320  42.1550120  40.2993220  19.6752790  37.3752000  46.3506620
  20.3228980  36.8249380  45.9101780  20.0954630  37.6295150  47.1722430
  35.2239410  41.6299230  43.2493260  35.1138690  41.4755270  44.1875530
  35.9847000  41.1020170  43.0068670  33.5705130  37.5693360  49.7076260
  34.2077350  38.1827500  50.0735450  33.7180020  37.6054020  48.7625490
  33.1286590  54.2709360  43.1094500  33.7245660  53.9493930  42.4328920
  33.3864740  53.7981180  43.9007770  19.4284790  37.5307670  49.0931940
  19.0799610  37.9871490  49.8590120  19.0972490  36.6364800  49.1754370
  21.0349160  50.7027270  53.2585130  20.9918790  50.3320180  54.1399590
  21.1660170  51.6404840  53.3986950  24.7355190  52.2586860  48.8594850
  24.4946550  52.5261420  47.9725370  25.6757830  52.4292590  48.9145710
  26.9409610  38.7219550  52.6151360  26.8798500  39.3141380  53.3646770
  27.8809990  38.6145510  52.4701620  29.5784170  38.3789610  52.2543650
  30.1924580  38.6968900  51.5924730  30.1233730  37.8938200  52.8739510
  35.9959350  54.2781240  49.6605490  35.5017630  54.6750110  48.9432620
  35.3872640  53.6530450  50.0542770  20.1005430  37.0583870  52.3682710
  20.6488420  36.8771920  51.6048820  20.1660740  36.2677980  52.9039020
  20.8737190  53.6489520  50.3782910  20.2797510  53.5174220  51.1172950
  20.8661030  52.8127660  49.9125010  30.3192210  36.9421750  48.5812940
  29.4452050  37.2756860  48.3785870  30.2102960  36.4694930  49.4064810
  31.2264190  39.1492620  49.9654660  30.8977550  38.3344380  49.5856390
  32.1746490  39.1062430  49.8420350  33.6798800  54.9204660  46.9392230
  33.2201770  55.6720470  46.5650250  33.0511260  54.2011130  46.8807030
  20.5049420  51.0147900  49.3290950  19.7783480  50.3953190  49.2616900
  20.5658570  51.4088510  48.4589030  24.1094520  53.2292900  46.1140360
  24.6259540  52.6180260  45.5888620  24.7591900  53.7321680  46.6051370
  26.8490020  54.1201390  46.9409340  27.1367830  53.8655690  46.0642350
  27.3613240  53.5678750  47.5314910  28.0667030  37.8591590  47.5205850
  27.2838820  38.3337090  47.8002610  27.7729960  36.9546420  47.4119030
  32.6188100  38.5614690  45.5654940  33.0596190  38.5059790  44.7176540
  32.3495690  39.4772700  45.6365120  34.4826670  38.1929930  43.5763760
  34.4215070  37.2491150  43.4294780  35.2618700  38.3010020  44.1217220
  18.7879420  54.3322290  42.5387710  18.6201460  53.6992970  43.2369600
  17.9213930  54.5381690  42.1881900  19.4107440  38.1639070  40.0419570
  20.1686800  38.2767950  39.4683600  18.9484610  39.0008270  39.9963000
  25.9521250  40.2778340  43.0321880  25.1395760  39.9035230  42.6917760
  26.4562890  39.5223420  43.3343070  30.4546230  36.9420790  44.2704950
  31.0575600  37.5141000  44.7453470  29.7139220  37.5060230  44.0478850
  20.3942120  53.0255520  39.9837850  19.8689740  53.4063550  39.2799810
  20.3186700  53.6506290  40.7047560  21.7832590  38.6903120  38.5821540
  22.3125350  37.9032920  38.4529490  22.4160910  39.3694310  38.8157070
  23.9770430  38.4278260  41.6366930  23.3473170  37.7265570  41.8037060
  23.4375570  39.1882390  41.4200090  26.9162380  55.0417490  54.3077540
  27.8429690  54.8061760  54.3513500  26.9012810  55.8689490  53.8263570
  35.1507440  54.5843060  41.3051790  35.3259630  53.8980800  40.6612710
  34.4529010  55.1090110  40.9128460  24.1025990  37.7062240  54.0719420
  23.8210260  38.2095840  53.3080240  24.4845690  36.9083990  53.7061550
  22.9935090  54.9737900  38.8587100  23.7253910  54.6897180  38.3110990
  23.2528760  54.7351180  39.7486480  22.1549880  51.0902630  38.8633430
  21.5258760  51.5587730  39.4119260  22.2697710  50.2451850  39.2979620
  30.7041450  37.1215820  54.6499890  30.5906900  37.4410430  55.5451410
  31.5211190  37.5228330  54.3537170  33.4839940  54.2687350  54.1318580
  34.2765260  53.7736580  53.9244540  33.7773090  54.9477490  54.7394190
  29.6099600  45.1408290  25.0134630  29.5293650  44.2262900  24.7426340
  29.1964020  45.6375360  24.3074340  27.7417640  46.9187310  26.8943900
  26.9659740  46.4387750  27.1842470  28.3930570  46.2392960  26.7200060
  21.7583470  47.2307120  27.7719660  20.9268350  46.9755830  28.1716170
  22.3664450  47.3017890  28.5077580  31.7625070  51.3247500  25.6743030
  31.3006600  50.5534740  26.0030200  32.5750620  51.3513570  26.1795480
  21.7384730  51.2647210  27.9677680  22.0412770  50.3744950  27.7887900
  22.4828320  51.8217430  27.7399930  20.1675420  42.1909010  21.5562050
  19.2792120  42.5324980  21.4541930  20.4516610  41.9909330  20.6642880
  18.1308430  44.7914660  27.4401750  18.7024540  44.0236860  27.4405390
  18.1309970  45.0903420  26.5308360  27.9888380  53.6105510  25.2947020
  27.3699820  54.0663010  24.7241460  28.8440160  53.7656970  24.8936720
  27.1826630  49.5944500  26.9014060  27.1134910  48.6534440  26.7403190
  27.9446490  49.6845910  27.4736630  19.3733300  40.1999020  29.2270680
  19.1936140  39.3024770  29.5073440  18.9713380  40.7470890  29.9017630
  28.2131800  42.4014880  27.1282990  28.5896620  41.5286760  27.0156660
  28.1151310  42.7373580  26.2373430  22.3436810  40.7740510  22.5900430
  22.4503560  41.6744240  22.8969190  21.4329170  40.7258480  22.2995080
  31.9955920  39.8965320  24.0611330  32.8165540  39.4061890  24.1036810
  32.0290000  40.4862980  24.8143170  19.9919970  42.6959520  27.8353020
  20.6730080  42.9597890  28.4540420  19.6768020  41.8560390  28.1691030
  24.1844540  43.7426880  26.9225610  24.6922760  44.2407850  27.5630630
  24.7157780  42.9662080  26.7464970  36.2855470  41.9132070  30.6254960
  35.5807640  42.3013780  30.1070070  36.5513390  42.6082360  31.2275890
  22.4680640  38.3825440  31.1889030  22.4699080  38.8997830  30.3834930
  21.6384950  37.9055620  31.1658960  28.8551730  48.4944750  22.6878930
  28.2369000  48.9594200  22.1241650  29.3674980  49.1872230  23.1048440
  23.7183490  48.0220620  29.3662530  23.3852870  48.6489540  30.0083600
  23.8950170  48.5482500  28.5864200  32.2317400  41.8365700  26.8338870
  31.5272970  42.1250590  27.4141980  32.5929560  42.6465810  26.4738430
  22.1495970  40.0935400  29.1959480  22.4912780  40.9377450  28.9013350
  21.2111780  40.2419140  29.3124820  22.9302590  49.9901420  31.1811710
  23.5476590  50.6652500  30.8996160  22.0695710  50.3989400  31.0899210
  18.2234930  49.1801280  20.0618560  17.8462910  49.6688380  19.3303460
  18.4808000  49.8526560  20.6925090  33.8480180  51.4540830  29.0966350
  33.1643700  52.1239940  29.0883020  34.3874470  51.6521480  28.3311210
  35.3004320  41.2820490  27.2248080  34.3529230  41.3159470  27.3563510
  35.6254310  42.0959440  27.6097440  25.8323860  37.5817670  25.5204070
  26.1398840  37.0264560  24.8039570  24.9024560  37.7162130  25.3377060
  31.3838920  53.2984960  27.8111530  31.3966080  52.8947250  26.9433790
  30.8314140  54.0732250  27.7072960  32.6784340  50.0201180  22.9001700
  32.5680670  49.0775510  23.0251120  32.6752590  50.3816820  23.7864460
  30.7824360  48.2014800  29.1394140  31.1993150  47.9874910  28.3047600
  31.5064180  48.4587590  29.7102760  28.2204620  45.6466500  22.2564190
  27.2933900  45.5803880  22.4852660  28.3729440  46.5846630  22.1419430
  28.2073700  41.9183500  19.2531350  27.2677370  42.0797460  19.3383810
  28.5256960  42.6369180  18.7067340  34.7286460  46.6002020  29.2310380
  33.9005090  46.6695110  28.7560510  35.3236940  47.1856330  28.7626210
  32.2501910  47.2086800  22.7599440  31.6314330  46.8706350  22.1125740
  32.2326360  46.5646560  23.4678630  31.6928470  43.3871340  30.1765250
  31.2799650  44.2125050  30.4305240  30.9604420  42.8016380  29.9841610
  23.8261260  46.1731240  25.0383920  23.4218260  45.4608490  24.5429820
  23.9124380  45.8284480  25.9271960  24.2942960  49.8598800  27.2023130
  23.9971250  49.2544270  26.5230910  25.2442780  49.8976110  27.0912490
  22.5389880  42.9474450  28.8182960  23.0904470  43.0569790  28.0436210
  23.0533390  43.3212050  29.5338190  32.3828570  53.4330670  30.8646230
  31.9059130  54.2402860  30.6718840  31.6990360  52.7809000  31.0172440
  23.3861390  49.5980490  33.8530930  22.4889920  49.8220460  34.1004330
  23.4114260  49.7215430  32.9042330  30.4266610  46.4473610  19.7672190
  30.8659890  45.6096040  19.6210010  31.1395030  47.0803010  19.8536330
  22.2132610  46.4693810  32.4288300  22.0740380  47.3416610  32.7975700
  21.3313970  46.1266620  32.2836240  28.5361990  51.3869680  23.7353430
  28.9757900  52.1294010  23.3208820  28.4748880  51.6296250  24.6592390
  24.0112960  52.4115510  34.6373450  23.9828390  52.8158460  33.7701880
  23.8477930  51.4825870  34.4745050  34.0083750  37.7016420  18.0813230
  33.6956410  37.7943250  18.9812300  34.7696220  38.2797450  18.0310660
  20.5265890  45.0676220  22.5390570  20.4063490  45.7938310  21.9271840
  20.2166780  44.2979130  22.0618480  35.9627780  53.1942610  35.9337620
  36.4387500  53.6725500  36.6126700  36.5834940  53.1260100  35.2083120
  18.1651260  48.2391360  28.3459210  18.2431680  48.3740130  27.4014930
  18.7792940  47.5307250  28.5387330  19.4098890  49.9391550  24.7565390
  19.0026970  50.0806140  23.9018990  20.3011900  49.6551710  24.5536600
  35.3661030  50.3855460  33.0937630  35.4924090  50.1467340  32.1754810
  35.4082410  49.5540000  33.5659710  29.2277770  54.0883460  31.6632440
  29.7422440  53.9991470  32.4654870  28.3846850  54.4343160  31.9560350
  31.2032170  54.3738800  21.0916440  31.0433310  54.0841740  21.9898270
  31.0378880  53.5978930  20.5561670  23.6820550  54.1537330  22.8688060
  23.5063030  53.2372870  22.6555860  22.8276290  54.5124620  23.1085860
  30.9058300  51.8826360  19.6514440  30.2123460  51.8803650  18.9916720
  31.6481160  51.4585680  19.2208610  30.4708230  53.5089070  23.7262930
  30.9265180  52.7278450  24.0401550  30.8100750  54.2195890  24.2704110
  18.2210780  49.2805530  30.8853670  18.3841820  48.8110890  30.0673040
  18.6863230  48.7729090  31.5502510  22.9929550  38.4111290  25.9214240
  22.5497700  39.1920830  25.5898760  23.5514540  38.7341180  26.6285180
  27.2799360  41.2779810  31.5249560  26.8178730  41.4862830  32.3369500
  26.8777470  40.4639160  31.2220230  32.2803870  42.4988760  32.6546220
  31.4297460  42.1994510  32.9755290  32.1205660  42.7430770  31.7430040
  29.3753580  43.9990510  34.7545010  29.7006990  43.1654260  34.4147240
  30.1633910  44.5219030  34.9023340  26.1088370  38.0321990  20.8020070
  25.4842550  38.0281860  21.5273380  26.0218490  37.1652950  20.4056040
  25.0305450  38.9558620  27.7803840  25.3277780  39.8621450  27.6995860
  25.5791010  38.4677400  27.1663410  22.7843770  43.5344860  23.6495490
  22.5584690  43.3182030  24.5542110  22.0036300  43.9673320  23.3041460
  30.0141530  43.5408230  22.2486140  29.4150420  44.2644030  22.0649760
  30.5621140  43.4785010  21.4662590  25.2242980  44.4330440  34.3155760
  25.1286580  43.4925170  34.1656160  26.0674960  44.6545510  33.9203830
  28.6206400  42.1771770  24.2789420  29.0135970  42.4943970  23.4658110
  28.9823250  41.2983650  24.3933940  20.3553520  40.8444110  32.4689540
  19.9616910  41.6919320  32.6762320  19.6671920  40.2070480  32.6598180
  26.9298570  40.9279080  35.5386280  26.2396890  40.7351280  36.1732370
  27.6730870  41.2113720  36.0710580  17.6570570  38.7672570  26.5019620
  17.3683620  39.3375430  27.2144600  18.4016330  38.2877020  26.8650850
  17.8440800  42.7092690  17.7122340  17.7615470  43.6523450  17.8537330
  17.4923860  42.5667600  16.8334690  29.2061540  44.7677520  28.3740200
  28.4742660  45.2764330  28.7230300  28.8085880  43.9507500  28.0728980
  25.6438930  41.4431720  26.7792690  25.6474990  41.0021670  25.9297230
  26.5390050  41.7649050  26.8864510  21.4941310  41.3258210  25.7386900
  21.1541360  41.8033440  26.4953950  20.7318630  40.8723330  25.3788000
  25.7059080  42.4443800  19.7699450  25.8271900  42.4030280  20.7185270
  25.3207590  43.3067950  19.6146180  29.6687450  40.2211200  27.7863140
  29.6860190  40.6719850  28.6304990  29.4203030  39.3216840  27.9996580
  24.7180580  44.7544940  19.1682750  24.1497480  44.3063190  18.5418660
  25.4269580  45.1137720  18.6347900  19.7949760  48.6556960  33.0449480
  19.4104550  48.0150630  33.6432440  20.1061950  49.3593080  33.6144210
  25.9446900  45.5033500  28.5258100  26.3117030  45.0292070  29.2719440
  25.7551960  46.3775070  28.8666440  18.8087390  40.2477190  24.6551570
  18.5234310  39.8832860  25.4930190  18.7466250  39.5157650  24.0414710
  23.7346270  44.5442140  30.8442310  23.4303340  45.4234120  31.0692670
  24.6892730  44.6041930  30.8799750  22.2628060  48.7503130  21.4409160
  21.4890320  48.2100750  21.2807880  22.9922690  48.2309740  21.1026920
  33.0216040  47.7468490  27.2335550  33.7415160  48.2423780  26.8431660
  32.8197860  47.0686380  26.5889420  28.4825980  39.1406450  21.3764940
  27.6690590  38.6419620  21.3010250  28.2887930  39.9804700  20.9601290
  28.4034840  47.8177550  33.1204550  28.3372150  46.8973220  32.8662140
  27.7739980  47.9152990  33.8349190  31.1974370  43.5126100  19.6727100
  32.0853990  43.8243330  19.4978440  31.1679460  42.6398350  19.2807680
  22.3065460  48.4183510  25.0787970  22.8244130  47.6151770  25.0244860
  21.8549480  48.3562650  25.9204800  27.1934960  49.6849790  20.3515270
  27.5350660  50.4292020  19.8558590  26.3647670  49.9980910  20.7140100
  19.7910000  45.3844880  31.9913670  19.4324940  46.0498730  32.5787010
  19.4964560  44.5528430  32.3626290  22.9923120  45.8429120  34.8753220
  22.6923260  45.9886300  33.9781040  23.7634360  45.2834410  34.7826610
  28.3351570  50.6398120  32.8708350  28.3496110  49.7079080  32.6527260
  27.6276670  50.7257880  33.5098120  33.4688640  44.8237940  19.1406960
  33.3852360  45.2552160  18.2903400  34.1882830  45.2836290  19.5733780
  34.5462780  47.2805460  32.2176930  33.8210970  47.8734240  32.0206320
  35.0738240  47.2729000  31.4190300  34.4975890  51.6780200  21.8689090
  33.8552050  51.0235820  22.1432810  34.1106550  52.0835290  21.0929760
  30.0762370  49.0065630  25.7160780  30.4286190  48.4093760  25.0562150
  29.1924700  48.6809860  25.8869030  26.1625650  49.7663320  23.1231190
  26.8496780  50.3132530  23.5038780  25.3758070  50.3104050  23.1580800
  18.3018050  45.3836140  18.6148270  19.1712900  45.6660940  18.8984190
  17.8108370  46.1972010  18.4997080  25.4652860  46.7709350  22.7356550
  25.9215640  47.5814600  22.9616740  25.1141070  46.4532490  23.5675040
  27.7685470  52.2815690  29.9648850  28.4127690  52.4875070  30.6422270
  28.1314910  51.5204090  29.5119700  21.3664640  37.1147000  23.2079070
  21.2379270  37.1064900  24.1563990  20.5426660  37.4530090  22.8570080
  29.0417550  50.2848040  28.6826300  29.6839780  49.5841200  28.7958470
  29.5666900  51.0646480  28.5023190  32.8873270  50.5696660  18.4065440
  32.6610850  49.8527100  18.9990080  32.4969470  50.3209100  17.5687190
  30.8155170  51.0842940  31.8862360  31.1511410  51.6709630  32.5640280
  29.8955510  50.9535650  32.1160150  18.6689300  54.5963520  19.1809900
  19.0286940  55.1952860  18.5267170  18.5281640  55.1423410  19.9544930
  18.3658570  38.8738120  32.6685770  17.6517090  39.0735040  33.2738380
  18.7853610  38.0977690  33.0400570  32.4689520  48.4868600  20.0679600
  32.1811220  48.9481290  20.8557480  33.2641690  48.0266370  20.3363820
  18.6531160  52.8618380  33.6552300  18.7622280  51.9213120  33.5147690
  18.0011720  53.1273130  33.0066030  26.6443750  51.1334270  35.0550420
  26.3240620  50.4143510  35.5996110  25.9702110  51.8089340  35.1286480
  24.6857920  51.9794720  19.9983570  24.6768020  52.7124410  19.3828080
  23.7656280  51.7326300  20.0910530  20.2864560  47.2009610  20.7430330
  19.6792510  47.9408510  20.7525630  20.7613910  47.2908970  19.9168530
  29.8597350  41.3660430  30.4187220  30.2278170  40.5455640  30.7466790
  28.9995550  41.4262320  30.8342870  33.2259380  40.3217370  21.2274780
  32.5972540  40.4263040  20.5133010  32.7311300  40.5414150  22.0168660
  27.6717520  52.0422960  18.6608760  27.7729500  51.8386950  17.7310740
  26.7719260  51.7881240  18.8656540  25.1943410  42.6003320  22.6432660
  24.4859560  43.0689660  23.0846270  25.4787890  41.9425330  23.2777850
  26.8199340  44.0200020  30.6425190  27.3184590  44.4945840  31.3077040
  26.9622290  43.0963540  30.8495220  29.2258840  39.3253980  24.0828450
  29.1026620  39.3440110  23.1337960  30.1743400  39.3732920  24.2026850
  26.3135630  54.5609280  23.3556430  26.5677130  54.5230670  22.4335800
  25.3648110  54.4342610  23.3484680  23.3978430  40.9088400  20.0183370
  24.2468960  41.3458550  19.9523560  23.0309700  41.2208660  20.8455430
  32.3188210  45.4801160  24.9314940  31.3778350  45.4951390  25.1062630
  32.6332280  44.6937120  25.3775240  22.2969850  47.1620760  18.4918900
  23.0633120  47.0502120  19.0544330  22.3744540  46.4658730  17.8395670
  20.9916610  44.5945830  19.1751790  21.0720200  43.6473340  19.2869190
  21.8836360  44.9252710  19.2812450  34.3213790  52.6510010  26.6069200
  34.4461210  53.4741180  27.0793010  35.1879350  52.4400740  26.2593350
  21.7931320  54.7441220  26.2786330  22.5293800  54.1956680  26.5494900
  22.1772240  55.6097230  26.1392320  18.6776800  50.8114790  22.1527840
  17.7516580  51.0535930  22.1433250  19.1433230  51.6389050  22.0312590
  20.7989600  53.9287290  35.4671910  21.6002330  54.2499340  35.8807310
  20.2841420  53.5682870  36.1891820  24.9033630  53.9171530  18.1011900
  25.6962240  54.2060360  17.6493690  24.3837980  53.4863700  17.4224380
  29.6354230  50.0367160  35.4147320  29.0292390  50.0598760  34.6743070
  29.3308340  49.3050200  35.9514570  31.0654600  53.7647450  34.0256730
  32.0176350  53.6805470  33.9756970  30.9182820  54.4289160  34.6990520
  33.9563800  53.1441660  19.5248640  33.6705310  52.7306800  18.7102820
  33.7583350  54.0729370  19.4049160  18.5187410  46.4160750  34.4107960
  19.0226430  45.8368030  34.9824190  17.7794830  46.7000980  34.9484330
  25.4211030  49.1374940  17.9654250  25.3161670  48.5227290  18.6915630
  25.2535250  48.6140830  17.1817260  25.5725350  47.8231740  33.9443480
  24.8071020  48.3916740  33.8598150  25.7541310  47.5307950  33.0511710
  28.6613760  48.1994970  18.5696240  28.1123860  48.6464270  19.2138980
  29.2833020  47.6944220  19.0933910  32.7148700  49.5537070  34.5018500
  33.4558170  49.8912830  33.9985960  31.9521380  49.7229130  33.9488270
  20.5510490  44.5590340  35.3058030  20.5915830  44.2604210  36.2143260
  21.4055990  44.9597950  35.1465550  24.3288880  47.1585890  20.4661540
  24.7505300  46.9925760  21.3092930  24.4539720  46.3486120  19.9716680
  22.4916300  43.1382440  33.2732520  21.9612760  42.6473390  32.6455860
  23.1604370  43.5666640  32.7390450  26.8416520  46.1823500  17.7138640
  27.3622180  45.4672520  17.3479790  27.4884920  46.8209370  18.0139150
  31.3894360  47.6051900  33.0373710  31.8035380  47.7596980  33.8864130
  30.4545360  47.7307120  33.1999490  31.8616530  44.9448060  35.0412860
  32.4437300  44.1900380  34.9533340  32.0378300  45.4755500  34.2644340
  22.9788600  40.1044810  33.3529810  22.8845470  39.4865560  32.6280680
  22.3985990  40.8311100  33.1259720  25.7450040  38.6618050  30.3857200
  25.2967340  38.6842310  29.5402750  25.1115240  38.2637070  30.9827500
  26.1509590  47.5572380  31.0069640  26.5697700  48.4005110  30.8345880
  25.2318220  47.6944420  30.7776420  28.4873490  45.2888560  32.3907480
  28.6069700  44.6929700  33.1302320  29.3467490  45.3258250  31.9708780
  30.8261390  45.8425750  30.9669990  30.2996610  46.3668370  30.3635130
  31.1692730  46.4753140  31.5979720  23.2247780  43.2319120  17.4119700
  23.0236840  42.3686480  17.7733040  23.0539830  43.1452480  16.4741300
  24.0017010  53.8625390  32.1227370  23.4638100  54.5871450  31.8036070
  24.2550970  53.3855730  31.3324710  25.2542260  41.8309910  33.6483300
  25.8441950  41.5225760  34.3361120  24.4362500  41.3589660  33.8043200
  30.0735690  41.4475720  33.8816320  29.3851210  40.7857260  33.8166310
  30.7941710  41.0013990  34.3264780  30.7036090  38.0427350  19.9406580
  30.9838380  37.1995250  20.2966000  29.9301820  38.2750460  20.4545330
  22.0230580  40.3319740  17.3997580  22.3256480  40.3387170  16.4916730
  22.7625170  39.9817600  17.8965240  26.8579220  55.0976600  32.3814020
  26.7837920  56.0011740  32.6886390  25.9558060  54.7788500  32.3536090
  25.2415510  39.2754360  18.3853780  24.8937510  38.5978350  17.8056230
  25.4428280  38.8143870  19.1997170  27.4064550  54.2635110  20.0040380
  28.3015340  54.6020080  20.0259140  27.4382180  53.5414520  19.3764660
  21.0460710  49.6362160  18.2327380  21.4835580  50.1791830  18.8884960
  21.5308440  48.8109110  18.2423720  18.2606510  52.4251190  25.6847640
  18.5909520  51.5572250  25.4526280  18.6897510  52.6309710  26.5152600
  22.8568430  50.7560200  23.3449610  22.5563970  50.6325170  24.2453520
  22.7505920  49.8968790  22.9365340  18.7496720  53.2921780  28.4229270
  18.3127710  53.4722580  29.2553420  19.3174400  54.0496400  28.2810990
  34.3858900  52.7938780  32.7106580  33.7860890  52.8531340  31.9670500
  34.5152800  51.8543760  32.8403430  35.6260350  50.5356600  18.0476290
  34.7953310  50.6033250  18.5183520  35.8032180  51.4260720  17.7443150
  35.0816810  47.2804080  20.5510490  35.8435720  47.8500730  20.6570180
  35.0971180  46.7131280  21.3218800  18.5821150  45.8042010  24.7818150
  17.9269990  45.5353650  24.1377850  19.4199100  45.6946490  24.3320130
  36.0876780  48.1354180  25.3952420  36.4585610  47.3521500  24.9888390
  36.7278710  48.8243280  25.2169720  33.0710540  49.5190760  30.8082740
  32.2570380  49.9487920  31.0708530  33.4784740  50.1309170  30.1951790
  35.1335980  47.5738450  17.7083010  35.4084820  48.4817330  17.5802230
  34.9446720  47.5100980  18.6445000  31.5311590  40.5983300  19.0036640
  31.9496470  40.4114280  18.1633300  31.2247650  39.7462350  19.3139570
  35.0301320  45.5107440  22.7012440  34.6544920  44.7435370  22.2693730
  34.3004440  45.8930140  23.1887370  19.6197080  46.1894580  29.3221490
  19.9870120  46.1021980  30.2017510  19.0507900  45.4261130  29.2228350
  34.4200940  44.6578960  32.3351960  34.1887030  44.4291710  31.4349910
  34.6805490  45.5778510  32.2896850  19.1713080  43.1003670  33.2279910
  18.2769130  43.0670430  33.5673620  19.7110630  43.2990460  33.9931160
  17.7959230  43.0140940  20.7243480  16.8923310  43.2771140  20.5495140
  18.2799850  43.2852110  19.9443440  34.3052280  43.7364930  26.0019680
  34.8289760  43.2427580  25.3709850  34.8911700  43.8715290  26.7467250
  34.4842000  43.8204800  29.5239230  33.5344710  43.7868340  29.6384220
  34.6655010  44.7304910  29.2889000  20.3386440  42.0706480  18.6337860
  21.0478140  41.6489700  18.1485140  19.6226380  42.1381710  18.0021210
  19.9860600  38.1245810  17.6740510  20.7088730  38.6654750  17.9921730
  20.2585120  37.8509230  16.7982050  33.7952250  42.9938280  21.9412090
  34.2911370  42.7609150  22.7260970  33.5968320  42.1550120  21.5249730
  19.6752790  37.3752000  27.5763130  20.3228980  36.8249380  27.1358290
  20.0954630  37.6295150  28.3978940  35.2239410  41.6299230  24.4749770
  35.1138690  41.4755270  25.4132040  35.9847000  41.1020170  24.2325180
  36.1129680  39.4607150  17.7155910  37.0378990  39.3288330  17.5074200
  36.0905470  39.5399970  18.6692360  36.1868170  40.2317810  20.3412620
  35.3919670  40.1662930  20.8705530  36.3911450  41.1668450  20.3297970
  33.1286590  54.2709360  24.3351010  33.7245660  53.9493930  23.6585430
  33.3864740  53.7981180  25.1264280  19.4284790  37.5307670  30.3188450
  19.0799610  37.9871490  31.0846630  19.0972490  36.6364800  30.4010880
  21.0349160  50.7027270  34.4841640  20.9918790  50.3320180  35.3656100
  21.1660170  51.6404840  34.6243460  24.7355190  52.2586860  30.0851360
  24.4946550  52.5261420  29.1981880  25.6757830  52.4292590  30.1402220
  26.9409610  38.7219550  33.8407870  26.8798500  39.3141380  34.5903280
  27.8809990  38.6145510  33.6958130  29.5784170  38.3789610  33.4800160
  30.1924580  38.6968900  32.8181240  30.1233730  37.8938200  34.0996020
  35.9959350  54.2781240  30.8862000  35.5017630  54.6750110  30.1689130
  35.3872640  53.6530450  31.2799280  20.1005430  37.0583870  33.5939220
  20.6488420  36.8771920  32.8305330  20.1660740  36.2677980  34.1295530
  20.8737190  53.6489520  31.6039420  20.2797510  53.5174220  32.3429460
  20.8661030  52.8127660  31.1381520  30.3192210  36.9421750  29.8069450
  29.4452050  37.2756860  29.6042380  30.2102960  36.4694930  30.6321320
  31.2264190  39.1492620  31.1911170  30.8977550  38.3344380  30.8112900
  32.1746490  39.1062430  31.0676860  33.6798800  54.9204660  28.1648740
  33.2201770  55.6720470  27.7906760  33.0511260  54.2011130  28.1063540
  20.5049420  51.0147900  30.5547460  19.7783480  50.3953190  30.4873410
  20.5658570  51.4088510  29.6845540  24.1094520  53.2292900  27.3396870
  24.6259540  52.6180260  26.8145130  24.7591900  53.7321680  27.8307880
  26.8490020  54.1201390  28.1665850  27.1367830  53.8655690  27.2898860
  27.3613240  53.5678750  28.7571420  28.0667030  37.8591590  28.7462360
  27.2838820  38.3337090  29.0259120  27.7729960  36.9546420  28.6375540
  32.6188100  38.5614690  26.7911450  33.0596190  38.5059790  25.9433050
  32.3495690  39.4772700  26.8621630  34.4826670  38.1929930  24.8020270
  34.4215070  37.2491150  24.6551290  35.2618700  38.3010020  25.3473730
  18.7879420  54.3322290  23.7644220  18.6201460  53.6992970  24.4626110
  17.9213930  54.5381690  23.4138410  19.4107440  38.1639070  21.2676080
  20.1686800  38.2767950  20.6940110  18.9484610  39.0008270  21.2219510
  25.9521250  40.2778340  24.2578390  25.1395760  39.9035230  23.9174270
  26.4562890  39.5223420  24.5599580  30.4546230  36.9420790  25.4961460
  31.0575600  37.5141000  25.9709980  29.7139220  37.5060230  25.2735360
  33.5980830  37.3442350  20.7701740  33.7931460  38.2425800  21.0369170
  32.8110700  37.1129430  21.2634690  20.3942120  53.0255520  21.2094360
  19.8689740  53.4063550  20.5056320  20.3186700  53.6506290  21.9304070
  21.7832590  38.6903120  19.8078050  22.3125350  37.9032920  19.6786000
  22.4160910  39.3694310  20.0413580  23.9770430  38.4278260  22.8623440
  23.3473170  37.7265570  23.0293570  23.4375570  39.1882390  22.6456600
  26.9162380  55.0417490  35.5334050  27.8429690  54.8061760  35.5770010
  26.9012810  55.8689490  35.0520080  35.1507440  54.5843060  22.5308300
  35.3259630  53.8980800  21.8869220  34.4529010  55.1090110  22.1384970
  24.1025990  37.7062240  35.2975930  23.8210260  38.2095840  34.5336750
  24.4845690  36.9083990  34.9318060  22.9935090  54.9737900  20.0843610
  23.7253910  54.6897180  19.5367500  23.2528760  54.7351180  20.9742990
  22.1549880  51.0902630  20.0889940  21.5258760  51.5587730  20.6375770
  22.2697710  50.2451850  20.5236130  33.4839940  54.2687350  35.3575090
  34.2765260  53.7736580  35.1501050  33.7773090  54.9477490  35.9650700
  29.6099600  45.1408290   6.2391140  29.5293650  44.2262900   5.9682850
  29.1964020  45.6375360   5.5330850  27.7417640  46.9187310   8.1200410
  26.9659740  46.4387750   8.4098980  28.3930570  46.2392960   7.9456570
  21.7583470  47.2307120   8.9976170  20.9268350  46.9755830   9.3972680
  22.3664450  47.3017890   9.7334090  31.7625070  51.3247500   6.8999540
  31.3006600  50.5534740   7.2286710  32.5750620  51.3513570   7.4051990
  21.7384730  51.2647210   9.1934190  22.0412770  50.3744950   9.0144410
  22.4828320  51.8217430   8.9656440  20.1675420  42.1909010   2.7818560
  19.2792120  42.5324980   2.6798440  20.4516610  41.9909330   1.8899390
  18.1308430  44.7914660   8.6658260  18.7024540  44.0236860   8.6661900
  18.1309970  45.0903420   7.7564870  27.9888380  53.6105510   6.5203530
  27.3699820  54.0663010   5.9497970  28.8440160  53.7656970   6.1193230
  27.1826630  49.5944500   8.1270570  27.1134910  48.6534440   7.9659700
  27.9446490  49.6845910   8.6993140  19.3733300  40.1999020  10.4527190
  19.1936140  39.3024770  10.7329950  18.9713380  40.7470890  11.1274140
  28.2131800  42.4014880   8.3539500  28.5896620  41.5286760   8.2413170
  28.1151310  42.7373580   7.4629940  22.3436810  40.7740510   3.8156940
  22.4503560  41.6744240   4.1225700  21.4329170  40.7258480   3.5251590
  31.9955920  39.8965320   5.2867840  32.8165540  39.4061890   5.3293320
  32.0290000  40.4862980   6.0399680  19.9919970  42.6959520   9.0609530
  20.6730080  42.9597890   9.6796930  19.6768020  41.8560390   9.3947540
  24.1844540  43.7426880   8.1482120  24.6922760  44.2407850   8.7887140
  24.7157780  42.9662080   7.9721480  36.2855470  41.9132070  11.8511470
  35.5807640  42.3013780  11.3326580  36.5513390  42.6082360  12.4532400
  22.4680640  38.3825440  12.4145540  22.4699080  38.8997830  11.6091440
  21.6384950  37.9055620  12.3915470  28.8551730  48.4944750   3.9135440
  28.2369000  48.9594200   3.3498160  29.3674980  49.1872230   4.3304950
  23.7183490  48.0220620  10.5919040  23.3852870  48.6489540  11.2340110
  23.8950170  48.5482500   9.8120710  32.2317400  41.8365700   8.0595380
  31.5272970  42.1250590   8.6398490  32.5929560  42.6465810   7.6994940
  22.1495970  40.0935400  10.4215990  22.4912780  40.9377450  10.1269860
  21.2111780  40.2419140  10.5381330  22.9302590  49.9901420  12.4068220
  23.5476590  50.6652500  12.1252670  22.0695710  50.3989400  12.3155720
  33.8480180  51.4540830  10.3222860  33.1643700  52.1239940  10.3139530
  34.3874470  51.6521480   9.5567720  35.3004320  41.2820490   8.4504590
  34.3529230  41.3159470   8.5820020  35.6254310  42.0959440   8.8353950
  25.8323860  37.5817670   6.7460580  26.1398840  37.0264560   6.0296080
  24.9024560  37.7162130   6.5633570  31.3838920  53.2984960   9.0368040
  31.3966080  52.8947250   8.1690300  30.8314140  54.0732250   8.9329470
  32.6784340  50.0201180   4.1258210  32.5680670  49.0775510   4.2507630
  32.6752590  50.3816820   5.0120970  30.7824360  48.2014800  10.3650650
  31.1993150  47.9874910   9.5304110  31.5064180  48.4587590  10.9359270
  28.2204620  45.6466500   3.4820700  27.2933900  45.5803880   3.7109170
  28.3729440  46.5846630   3.3675940  34.7286460  46.6002020  10.4566890
  33.9005090  46.6695110   9.9817020  35.3236940  47.1856330   9.9882720
  32.2501910  47.2086800   3.9855950  31.6314330  46.8706350   3.3382250
  32.2326360  46.5646560   4.6935140  31.6928470  43.3871340  11.4021760
  31.2799650  44.2125050  11.6561750  30.9604420  42.8016380  11.2098120
  23.8261260  46.1731240   6.2640430  23.4218260  45.4608490   5.7686330
  23.9124380  45.8284480   7.1528470  24.2942960  49.8598800   8.4279640
  23.9971250  49.2544270   7.7487420  25.2442780  49.8976110   8.3169000
  22.5389880  42.9474450  10.0439470  23.0904470  43.0569790   9.2692720
  23.0533390  43.3212050  10.7594700  32.3828570  53.4330670  12.0902740
  31.9059130  54.2402860  11.8975350  31.6990360  52.7809000  12.2428950
  23.3861390  49.5980490  15.0787440  22.4889920  49.8220460  15.3260840
  23.4114260  49.7215430  14.1298840  22.2132610  46.4693810  13.6544810
  22.0740380  47.3416610  14.0232210  21.3313970  46.1266620  13.5092750
  28.5361990  51.3869680   4.9609940  28.9757900  52.1294010   4.5465330
  28.4748880  51.6296250   5.8848900  24.0112960  52.4115510  15.8629960
  23.9828390  52.8158460  14.9958390  23.8477930  51.4825870  15.7001560
  20.5265890  45.0676220   3.7647080  20.4063490  45.7938310   3.1528350
  20.2166780  44.2979130   3.2874990  35.9627780  53.1942610  17.1594130
  36.4387500  53.6725500  17.8383210  36.5834940  53.1260100  16.4339630
  18.1651260  48.2391360   9.5715720  18.2431680  48.3740130   8.6271440
  18.7792940  47.5307250   9.7643840  19.4098890  49.9391550   5.9821900
  19.0026970  50.0806140   5.1275500  20.3011900  49.6551710   5.7793110
  35.3661030  50.3855460  14.3194140  35.4924090  50.1467340  13.4011320
  35.4082410  49.5540000  14.7916220  29.2277770  54.0883460  12.8888950
  29.7422440  53.9991470  13.6911380  28.3846850  54.4343160  13.1816860
  31.2032170  54.3738800   2.3172950  31.0433310  54.0841740   3.2154780
  31.0378880  53.5978930   1.7818180  23.6820550  54.1537330   4.0944570
  23.5063030  53.2372870   3.8812370  22.8276290  54.5124620   4.3342370
  30.4708230  53.5089070   4.9519440  30.9265180  52.7278450   5.2658060
  30.8100750  54.2195890   5.4960620  35.2185040  42.4387920  15.2843880
  34.6029310  42.9467590  14.7559340  34.8981460  41.5386250  15.2269820
  18.2210780  49.2805530  12.1110180  18.3841820  48.8110890  11.2929550
  18.6863230  48.7729090  12.7759020  22.9929550  38.4111290   7.1470750
  22.5497700  39.1920830   6.8155270  23.5514540  38.7341180   7.8541690
  27.2799360  41.2779810  12.7506070  26.8178730  41.4862830  13.5626010
  26.8777470  40.4639160  12.4476740  32.2803870  42.4988760  13.8802730
  31.4297460  42.1994510  14.2011800  32.1205660  42.7430770  12.9686550
  29.3753580  43.9990510  15.9801520  29.7006990  43.1654260  15.6403750
  30.1633910  44.5219030  16.1279850  25.0305450  38.9558620   9.0060350
  25.3277780  39.8621450   8.9252370  25.5791010  38.4677400   8.3919920
  22.7843770  43.5344860   4.8752000  22.5584690  43.3182030   5.7798620
  22.0036300  43.9673320   4.5297970  30.0141530  43.5408230   3.4742650
  29.4150420  44.2644030   3.2906270  30.5621140  43.4785010   2.6919100
  25.2242980  44.4330440  15.5412270  25.1286580  43.4925170  15.3912670
  26.0674960  44.6545510  15.1460340  28.6206400  42.1771770   5.5045930
  29.0135970  42.4943970   4.6914620  28.9823250  41.2983650   5.6190450
  20.3553520  40.8444110  13.6946050  19.9616910  41.6919320  13.9018830
  19.6671920  40.2070480  13.8854690  26.9298570  40.9279080  16.7642790
  26.2396890  40.7351280  17.3988880  27.6730870  41.2113720  17.2967090
  17.6570570  38.7672570   7.7276130  17.3683620  39.3375430   8.4401110
  18.4016330  38.2877020   8.0907360  29.2061540  44.7677520   9.5996710
  28.4742660  45.2764330   9.9486810  28.8085880  43.9507500   9.2985490
  25.6438930  41.4431720   8.0049200  25.6474990  41.0021670   7.1553740
  26.5390050  41.7649050   8.1121020  21.4941310  41.3258210   6.9643410
  21.1541360  41.8033440   7.7210460  20.7318630  40.8723330   6.6044510
  29.6687450  40.2211200   9.0119650  29.6860190  40.6719850   9.8561500
  29.4203030  39.3216840   9.2253090  33.0958200  37.6343380  14.8506030
  33.4203970  36.9033040  15.3764010  33.1314710  37.3157020  13.9487020
  19.7949760  48.6556960  14.2705990  19.4104550  48.0150630  14.8688950
  20.1061950  49.3593080  14.8400720  25.9446900  45.5033500   9.7514610
  26.3117030  45.0292070  10.4975950  25.7551960  46.3775070  10.0922950
  18.8087390  40.2477190   5.8808080  18.5234310  39.8832860   6.7186700
  18.7466250  39.5157650   5.2671220  23.7346270  44.5442140  12.0698820
  23.4303340  45.4234120  12.2949180  24.6892730  44.6041930  12.1056260
  22.2628060  48.7503130   2.6665670  21.4890320  48.2100750   2.5064390
  22.9922690  48.2309740   2.3283430  33.0216040  47.7468490   8.4592060
  33.7415160  48.2423780   8.0688170  32.8197860  47.0686380   7.8145930
  28.4825980  39.1406450   2.6021450  27.6690590  38.6419620   2.5266760
  28.2887930  39.9804700   2.1857800  28.4034840  47.8177550  14.3461060
  28.3372150  46.8973220  14.0918650  27.7739980  47.9152990  15.0605700
  22.3065460  48.4183510   6.3044480  22.8244130  47.6151770   6.2501370
  21.8549480  48.3562650   7.1461310  19.7910000  45.3844880  13.2170180
  19.4324940  46.0498730  13.8043520  19.4964560  44.5528430  13.5882800
  22.9923120  45.8429120  16.1009730  22.6923260  45.9886300  15.2037550
  23.7634360  45.2834410  16.0083120  28.3351570  50.6398120  14.0964860
  28.3496110  49.7079080  13.8783770  27.6276670  50.7257880  14.7354630
  34.5462780  47.2805460  13.4433440  33.8210970  47.8734240  13.2462830
  35.0738240  47.2729000  12.6446810  34.4975890  51.6780200   3.0945600
  33.8552050  51.0235820   3.3689320  34.1106550  52.0835290   2.3186270
  30.0762370  49.0065630   6.9417290  30.4286190  48.4093760   6.2818660
  29.1924700  48.6809860   7.1125540  26.1625650  49.7663320   4.3487700
  26.8496780  50.3132530   4.7295290  25.3758070  50.3104050   4.3837310
  25.4652860  46.7709350   3.9613060  25.9215640  47.5814600   4.1873250
  25.1141070  46.4532490   4.7931550  27.7685470  52.2815690  11.1905360
  28.4127690  52.4875070  11.8678780  28.1314910  51.5204090  10.7376210
  21.3664640  37.1147000   4.4335580  21.2379270  37.1064900   5.3820500
  20.5426660  37.4530090   4.0826590  29.0417550  50.2848040   9.9082810
  29.6839780  49.5841200  10.0214980  29.5666900  51.0646480   9.7279700
  30.8155170  51.0842940  13.1118870  31.1511410  51.6709630  13.7896790
  29.8955510  50.9535650  13.3416660  18.3658570  38.8738120  13.8942280
  17.6517090  39.0735040  14.4994890  18.7853610  38.0977690  14.2657080
  18.6531160  52.8618380  14.8808810  18.7622280  51.9213120  14.7404200
  18.0011720  53.1273130  14.2322540  26.6443750  51.1334270  16.2806930
  26.3240620  50.4143510  16.8252620  25.9702110  51.8089340  16.3542990
  29.8597350  41.3660430  11.6443730  30.2278170  40.5455640  11.9723300
  28.9995550  41.4262320  12.0599380  33.2259380  40.3217370   2.4531290
  32.5972540  40.4263040   1.7389520  32.7311300  40.5414150   3.2425170
  25.1943410  42.6003320   3.8689170  24.4859560  43.0689660   4.3102780
  25.4787890  41.9425330   4.5034360  26.8199340  44.0200020  11.8681700
  27.3184590  44.4945840  12.5333550  26.9622290  43.0963540  12.0751730
  29.2258840  39.3253980   5.3084960  29.1026620  39.3440110   4.3594470
  30.1743400  39.3732920   5.4283360  26.3135630  54.5609280   4.5812940
  26.5677130  54.5230670   3.6592310  25.3648110  54.4342610   4.5741190
  34.0266200  40.2367980  12.7110090  33.5239800  40.9773380  13.0503900
  34.8422860  40.6251980  12.3946880  32.3188210  45.4801160   6.1571450
  31.3778350  45.4951390   6.3319140  32.6332280  44.6937120   6.6031750
  34.3213790  52.6510010   7.8325710  34.4461210  53.4741180   8.3049520
  35.1879350  52.4400740   7.4849860  21.7931320  54.7441220   7.5042840
  22.5293800  54.1956680   7.7751410  22.1772240  55.6097230   7.3648830
  18.6776800  50.8114790   3.3784350  17.7516580  51.0535930   3.3689760
  19.1433230  51.6389050   3.2569100  20.7989600  53.9287290  16.6928420
  21.6002330  54.2499340  17.1063820  20.2841420  53.5682870  17.4148330
  29.6354230  50.0367160  16.6403830  29.0292390  50.0598760  15.8999580
  29.3308340  49.3050200  17.1771080  31.0654600  53.7647450  15.2513240
  32.0176350  53.6805470  15.2013480  30.9182820  54.4289160  15.9247030
  18.5187410  46.4160750  15.6364470  19.0226430  45.8368030  16.2080700
  17.7794830  46.7000980  16.1740840  25.5725350  47.8231740  15.1699990
  24.8071020  48.3916740  15.0854660  25.7541310  47.5307950  14.2768220
  32.7148700  49.5537070  15.7275010  33.4558170  49.8912830  15.2242470
  31.9521380  49.7229130  15.1744780  20.5510490  44.5590340  16.5314540
  20.5915830  44.2604210  17.4399770  21.4055990  44.9597950  16.3722060
  22.4916300  43.1382440  14.4989030  21.9612760  42.6473390  13.8712370
  23.1604370  43.5666640  13.9646960  31.3894360  47.6051900  14.2630220
  31.8035380  47.7596980  15.1120640  30.4545360  47.7307120  14.4256000
  31.8616530  44.9448060  16.2669370  32.4437300  44.1900380  16.1789850
  32.0378300  45.4755500  15.4900850  22.9788600  40.1044810  14.5786320
  22.8845470  39.4865560  13.8537190  22.3985990  40.8311100  14.3516230
  25.7450040  38.6618050  11.6113710  25.2967340  38.6842310  10.7659260
  25.1115240  38.2637070  12.2084010  26.1509590  47.5572380  12.2326150
  26.5697700  48.4005110  12.0602390  25.2318220  47.6944420  12.0032930
  28.4873490  45.2888560  13.6163990  28.6069700  44.6929700  14.3558830
  29.3467490  45.3258250  13.1965290  30.8261390  45.8425750  12.1926500
  30.2996610  46.3668370  11.5891640  31.1692730  46.4753140  12.8236230
  24.0017010  53.8625390  13.3483880  23.4638100  54.5871450  13.0292580
  24.2550970  53.3855730  12.5581220  25.2542260  41.8309910  14.8739810
  25.8441950  41.5225760  15.5617630  24.4362500  41.3589660  15.0299710
  30.0735690  41.4475720  15.1072830  29.3851210  40.7857260  15.0422820
  30.7941710  41.0013990  15.5521290  26.8579220  55.0976600  13.6070530
  26.7837920  56.0011740  13.9142900  25.9558060  54.7788500  13.5792600
  18.2606510  52.4251190   6.9104150  18.5909520  51.5572250   6.6782790
  18.6897510  52.6309710   7.7409110  22.8568430  50.7560200   4.5706120
  22.5563970  50.6325170   5.4710030  22.7505920  49.8968790   4.1621850
  18.7496720  53.2921780   9.6485780  18.3127710  53.4722580  10.4809930
  19.3174400  54.0496400   9.5067500  34.3858900  52.7938780  13.9363090
  33.7860890  52.8531340  13.1927010  34.5152800  51.8543760  14.0659940
  35.0816810  47.2804080   1.7767000  35.8435720  47.8500730   1.8826690
  35.0971180  46.7131280   2.5475310  18.5821150  45.8042010   6.0074660
  17.9269990  45.5353650   5.3634360  19.4199100  45.6946490   5.5576640
  36.0876780  48.1354180   6.6208930  36.4585610  47.3521500   6.2144900
  36.7278710  48.8243280   6.4426230  33.0710540  49.5190760  12.0339250
  32.2570380  49.9487920  12.2965040  33.4784740  50.1309170  11.4208300
  35.0301320  45.5107440   3.9268950  34.6544920  44.7435370   3.4950240
  34.3004440  45.8930140   4.4143880  19.6197080  46.1894580  10.5478000
  19.9870120  46.1021980  11.4274020  19.0507900  45.4261130  10.4484860
  34.4200940  44.6578960  13.5608470  34.1887030  44.4291710  12.6606420
  34.6805490  45.5778510  13.5153360  19.1713080  43.1003670  14.4536420
  18.2769130  43.0670430  14.7930130  19.7110630  43.2990460  15.2187670
  32.8589010  39.8835390  16.3388170  33.7359190  39.8918790  16.7222170
  32.8709850  39.1466230  15.7280520  34.3052280  43.7364930   7.2276190
  34.8289760  43.2427580   6.5966360  34.8911700  43.8715290   7.9723760
  34.4842000  43.8204800  10.7495740  33.5344710  43.7868340  10.8640730
  34.6655010  44.7304910  10.5145510  33.7952250  42.9938280   3.1668600
  34.2911370  42.7609150   3.9517480  33.5968320  42.1550120   2.7506240
  19.6752790  37.3752000   8.8019640  20.3228980  36.8249380   8.3614800
  20.0954630  37.6295150   9.6235450  35.2239410  41.6299230   5.7006280
  35.1138690  41.4755270   6.6388550  35.9847000  41.1020170   5.4581690
  33.5705130  37.5693360  12.1589280  34.2077350  38.1827500  12.5248470
  33.7180020  37.6054020  11.2138510  33.1286590  54.2709360   5.5607520
  33.7245660  53.9493930   4.8841940  33.3864740  53.7981180   6.3520790
  19.4284790  37.5307670  11.5444960  19.0799610  37.9871490  12.3103140
  19.0972490  36.6364800  11.6267390  21.0349160  50.7027270  15.7098150
  20.9918790  50.3320180  16.5912610  21.1660170  51.6404840  15.8499970
  24.7355190  52.2586860  11.3107870  24.4946550  52.5261420  10.4238390
  25.6757830  52.4292590  11.3658730  26.9409610  38.7219550  15.0664380
  26.8798500  39.3141380  15.8159790  27.8809990  38.6145510  14.9214640
  29.5784170  38.3789610  14.7056670  30.1924580  38.6968900  14.0437750
  30.1233730  37.8938200  15.3252530  35.9959350  54.2781240  12.1118510
  35.5017630  54.6750110  11.3945640  35.3872640  53.6530450  12.5055790
  20.1005430  37.0583870  14.8195730  20.6488420  36.8771920  14.0561840
  20.1660740  36.2677980  15.3552040  20.8737190  53.6489520  12.8295930
  20.2797510  53.5174220  13.5685970  20.8661030  52.8127660  12.3638030
  30.3192210  36.9421750  11.0325960  29.4452050  37.2756860  10.8298890
  30.2102960  36.4694930  11.8577830  31.2264190  39.1492620  12.4167680
  30.8977550  38.3344380  12.0369410  32.1746490  39.1062430  12.2933370
  33.6798800  54.9204660   9.3905250  33.2201770  55.6720470   9.0163270
  33.0511260  54.2011130   9.3320050  20.5049420  51.0147900  11.7803970
  19.7783480  50.3953190  11.7129920  20.5658570  51.4088510  10.9102050
  24.1094520  53.2292900   8.5653380  24.6259540  52.6180260   8.0401640
  24.7591900  53.7321680   9.0564390  26.8490020  54.1201390   9.3922360
  27.1367830  53.8655690   8.5155370  27.3613240  53.5678750   9.9827930
  28.0667030  37.8591590   9.9718870  27.2838820  38.3337090  10.2515630
  27.7729960  36.9546420   9.8632050  32.6188100  38.5614690   8.0167960
  33.0596190  38.5059790   7.1689560  32.3495690  39.4772700   8.0878140
  34.4826670  38.1929930   6.0276780  34.4215070  37.2491150   5.8807800
  35.2618700  38.3010020   6.5730240  18.7879420  54.3322290   4.9900730
  18.6201460  53.6992970   5.6882620  17.9213930  54.5381690   4.6394920
  19.4107440  38.1639070   2.4932590  20.1686800  38.2767950   1.9196620
  18.9484610  39.0008270   2.4476020  25.9521250  40.2778340   5.4834900
  25.1395760  39.9035230   5.1430780  26.4562890  39.5223420   5.7856090
  30.4546230  36.9420790   6.7217970  31.0575600  37.5141000   7.1966490
  29.7139220  37.5060230   6.4991870  33.5980830  37.3442350   1.9958250
  33.7931460  38.2425800   2.2625680  32.8110700  37.1129430   2.4891200
  20.3942120  53.0255520   2.4350870  19.8689740  53.4063550   1.7312830
  20.3186700  53.6506290   3.1560580  23.9770430  38.4278260   4.0879950
  23.3473170  37.7265570   4.2550080  23.4375570  39.1882390   3.8713110
  26.9162380  55.0417490  16.7590560  27.8429690  54.8061760  16.8026520
  26.9012810  55.8689490  16.2776590  35.1507440  54.5843060   3.7564810
  35.3259630  53.8980800   3.1125730  34.4529010  55.1090110   3.3641480
  24.1025990  37.7062240  16.5232440  23.8210260  38.2095840  15.7593260
  24.4845690  36.9083990  16.1574570  30.7041450  37.1215820  17.1012910
  30.5906900  37.4410430  17.9964430  31.5211190  37.5228330  16.8050190
  33.4839940  54.2687350  16.5831600  34.2765260  53.7736580  16.3757560
  33.7773090  54.9477490  17.1907210  29.6099600  26.3664800  62.5621610
  29.5293650  25.4519410  62.2913320  29.1964020  26.8631870  61.8561320
  27.7417640  28.1443820  64.4430880  26.9659740  27.6644260  64.7329450
  28.3930570  27.4649470  64.2687040  21.7583470  28.4563630  65.3206640
  20.9268350  28.2012340  65.7203150  22.3664450  28.5274400  66.0564560
  31.7625070  32.5504010  63.2230010  31.3006600  31.7791250  63.5517180
  32.5750620  32.5770080  63.7282460  21.7384730  32.4903720  65.5164660
  22.0412770  31.6001460  65.3374880  22.4828320  33.0473940  65.2886910
  20.1675420  23.4165520  59.1049030  19.2792120  23.7581490  59.0028910
  20.4516610  23.2165840  58.2129860  18.1308430  26.0171170  64.9888730
  18.7024540  25.2493370  64.9892370  18.1309970  26.3159930  64.0795340
  27.9888380  34.8362020  62.8434000  27.3699820  35.2919520  62.2728440
  28.8440160  34.9913480  62.4423700  27.1826630  30.8201010  64.4501040
  27.1134910  29.8790950  64.2890170  27.9446490  30.9102420  65.0223610
  19.3733300  21.4255530  66.7757660  19.1936140  20.5281280  67.0560420
  18.9713380  21.9727400  67.4504610  28.2131800  23.6271390  64.6769970
  28.5896620  22.7543270  64.5643640  28.1151310  23.9630090  63.7860410
  22.3436810  21.9997020  60.1387410  22.4503560  22.9000750  60.4456170
  21.4329170  21.9514990  59.8482060  31.9955920  21.1221830  61.6098310
  32.8165540  20.6318400  61.6523790  32.0290000  21.7119490  62.3630150
  19.9919970  23.9216030  65.3840000  20.6730080  24.1854400  66.0027400
  19.6768020  23.0816900  65.7178010  24.1844540  24.9683390  64.4712590
  24.6922760  25.4664360  65.1117610  24.7157780  24.1918590  64.2951950
  36.2855470  23.1388580  68.1741940  35.5807640  23.5270290  67.6557050
  36.5513390  23.8338870  68.7762870  22.4680640  19.6081950  68.7376010
  22.4699080  20.1254340  67.9321910  21.6384950  19.1312130  68.7145940
  28.8551730  29.7201260  60.2365910  28.2369000  30.1850710  59.6728630
  29.3674980  30.4128740  60.6535420  23.7183490  29.2477130  66.9149510
  23.3852870  29.8746050  67.5570580  23.8950170  29.7739010  66.1351180
  32.2317400  23.0622210  64.3825850  31.5272970  23.3507100  64.9628960
  32.5929560  23.8722320  64.0225410  22.1495970  21.3191910  66.7446460
  22.4912780  22.1633960  66.4500330  21.2111780  21.4675650  66.8611800
  22.9302590  31.2157930  68.7298690  23.5476590  31.8909010  68.4483140
  22.0695710  31.6245910  68.6386190  18.2234930  30.4057790  57.6105540
  17.8462910  30.8944890  56.8790440  18.4808000  31.0783070  58.2412070
  33.8480180  32.6797340  66.6453330  33.1643700  33.3496450  66.6370000
  34.3874470  32.8777990  65.8798190  35.3004320  22.5077000  64.7735060
  34.3529230  22.5415980  64.9050490  35.6254310  23.3215950  65.1584420
  25.8323860  18.8074180  63.0691050  26.1398840  18.2521070  62.3526550
  24.9024560  18.9418640  62.8864040  31.3838920  34.5241470  65.3598510
  31.3966080  34.1203760  64.4920770  30.8314140  35.2988760  65.2559940
  32.6784340  31.2457690  60.4488680  32.5680670  30.3032020  60.5738100
  32.6752590  31.6073330  61.3351440  30.7824360  29.4271310  66.6881120
  31.1993150  29.2131420  65.8534580  31.5064180  29.6844100  67.2589740
  28.2204620  26.8723010  59.8051170  27.2933900  26.8060390  60.0339640
  28.3729440  27.8103140  59.6906410  28.2073700  23.1440010  56.8018330
  27.2677370  23.3053970  56.8870790  28.5256960  23.8625690  56.2554320
  34.7286460  27.8258530  66.7797360  33.9005090  27.8951620  66.3047490
  35.3236940  28.4112840  66.3113190  32.2501910  28.4343310  60.3086420
  31.6314330  28.0962860  59.6612720  32.2326360  27.7903070  61.0165610
  31.6928470  24.6127850  67.7252230  31.2799650  25.4381560  67.9792220
  30.9604420  24.0272890  67.5328590  23.8261260  27.3987750  62.5870900
  23.4218260  26.6865000  62.0916800  23.9124380  27.0540990  63.4758940
  24.2942960  31.0855310  64.7510110  23.9971250  30.4800780  64.0717890
  25.2442780  31.1232620  64.6399470  22.5389880  24.1730960  66.3669940
  23.0904470  24.2826300  65.5923190  23.0533390  24.5468560  67.0825170
  32.3828570  34.6587180  68.4133210  31.9059130  35.4659370  68.2205820
  31.6990360  34.0065510  68.5659420  30.4266610  27.6730120  57.3159170
  30.8659890  26.8352550  57.1696990  31.1395030  28.3059520  57.4023310
  28.5361990  32.6126190  61.2840410  28.9757900  33.3550520  60.8695800
  28.4748880  32.8552760  62.2079370  34.0083750  18.9272930  55.6300210
  33.6956410  19.0199760  56.5299280  34.7696220  19.5053960  55.5797640
  20.5265890  26.2932730  60.0877550  20.4063490  27.0194820  59.4758820
  20.2166780  25.5235640  59.6105460  18.1651260  29.4647870  65.8946190
  18.2431680  29.5996640  64.9501910  18.7792940  28.7563760  66.0874310
  19.4098890  31.1648060  62.3052370  19.0026970  31.3062650  61.4505970
  20.3011900  30.8808220  62.1023580  29.2277770  35.3139970  69.2119420
  29.7422440  35.2247980  70.0141850  28.3846850  35.6599670  69.5047330
  31.2032170  35.5995310  58.6403420  31.0433310  35.3098250  59.5385250
  31.0378880  34.8235440  58.1048650  23.6820550  35.3793840  60.4175040
  23.5063030  34.4629380  60.2042840  22.8276290  35.7381130  60.6572840
  30.9058300  33.1082870  57.2001420  30.2123460  33.1060160  56.5403700
  31.6481160  32.6842190  56.7695590  30.4708230  34.7345580  61.2749910
  30.9265180  33.9534960  61.5888530  30.8100750  35.4452400  61.8191090
  18.2210780  30.5062040  68.4340650  18.3841820  30.0367400  67.6160020
  18.6863230  29.9985600  69.0989490  22.9929550  19.6367800  63.4701220
  22.5497700  20.4177340  63.1385740  23.5514540  19.9597690  64.1772160
  27.2799360  22.5036320  69.0736540  26.8178730  22.7119340  69.8856480
  26.8777470  21.6895670  68.7707210  26.1088370  19.2578500  58.3507050
  25.4842550  19.2538370  59.0760360  26.0218490  18.3909460  57.9543020
  25.0305450  20.1815130  65.3290820  25.3277780  21.0877960  65.2482840
  25.5791010  19.6933910  64.7150390  22.7843770  24.7601370  61.1982470
  22.5584690  24.5438540  62.1029090  22.0036300  25.1929830  60.8528440
  30.0141530  24.7664740  59.7973120  29.4150420  25.4900540  59.6136740
  30.5621140  24.7041520  59.0149570  28.6206400  23.4028280  61.8276400
  29.0135970  23.7200480  61.0145090  28.9823250  22.5240160  61.9420920
  20.3553520  22.0700620  70.0176520  19.9616910  22.9175830  70.2249300
  19.6671920  21.4326990  70.2085160  17.6570570  19.9929080  64.0506600
  17.3683620  20.5631940  64.7631580  18.4016330  19.5133530  64.4137830
  17.8440800  23.9349200  55.2609320  17.7615470  24.8779960  55.4024310
  17.4923860  23.7924110  54.3821670  29.2061540  25.9934030  65.9227180
  28.4742660  26.5020840  66.2717280  28.8085880  25.1764010  65.6215960
  25.6438930  22.6688230  64.3279670  25.6474990  22.2278180  63.4784210
  26.5390050  22.9905560  64.4351490  21.4941310  22.5514720  63.2873880
  21.1541360  23.0289950  64.0440930  20.7318630  22.0979840  62.9274980
  25.7059080  23.6700310  57.3186430  25.8271900  23.6286790  58.2672250
  25.3207590  24.5324460  57.1633160  29.6687450  21.4467710  65.3350120
  29.6860190  21.8976360  66.1791970  29.4203030  20.5473350  65.5483560
  24.7180580  25.9801450  56.7169730  24.1497480  25.5319700  56.0905640
  25.4269580  26.3394230  56.1834880  25.9446900  26.7290010  66.0745080
  26.3117030  26.2548580  66.8206420  25.7551960  27.6031580  66.4153420
  18.8087390  21.4733700  62.2038550  18.5234310  21.1089370  63.0417170
  18.7466250  20.7414160  61.5901690  23.7346270  25.7698650  68.3929290
  23.4303340  26.6490630  68.6179650  24.6892730  25.8298440  68.4286730
  22.2628060  29.9759640  58.9896140  21.4890320  29.4357260  58.8294860
  22.9922690  29.4566250  58.6513900  33.0216040  28.9725000  64.7822530
  33.7415160  29.4680290  64.3918640  32.8197860  28.2942890  64.1376400
  28.4825980  20.3662960  58.9251920  27.6690590  19.8676130  58.8497230
  28.2887930  21.2061210  58.5088270  31.1974370  24.7382610  57.2214080
  32.0853990  25.0499840  57.0465420  31.1679460  23.8654860  56.8294660
  22.3065460  29.6440020  62.6274950  22.8244130  28.8408280  62.5731840
  21.8549480  29.5819160  63.4691780  27.1934960  30.9106300  57.9002250
  27.5350660  31.6548530  57.4045570  26.3647670  31.2237420  58.2627080
  19.7910000  26.6101390  69.5400650  19.4324940  27.2755240  70.1273990
  19.4964560  25.7784940  69.9113270  33.4688640  26.0494450  56.6893940
  33.3852360  26.4808670  55.8390380  34.1882830  26.5092800  57.1220760
  34.5462780  28.5061970  69.7663910  33.8210970  29.0990750  69.5693300
  35.0738240  28.4985510  68.9677280  34.4975890  32.9036710  59.4176070
  33.8552050  32.2492330  59.6919790  34.1106550  33.3091800  58.6416740
  30.0762370  30.2322140  63.2647760  30.4286190  29.6350270  62.6049130
  29.1924700  29.9066370  63.4356010  26.1625650  30.9919830  60.6718170
  26.8496780  31.5389040  61.0525760  25.3758070  31.5360560  60.7067780
  18.3018050  26.6092650  56.1635250  19.1712900  26.8917450  56.4471170
  17.8108370  27.4228520  56.0484060  25.4652860  27.9965860  60.2843530
  25.9215640  28.8071110  60.5103720  25.1141070  27.6789000  61.1162020
  27.7685470  33.5072200  67.5135830  28.4127690  33.7131580  68.1909250
  28.1314910  32.7460600  67.0606680  21.3664640  18.3403510  60.7566050
  21.2379270  18.3321410  61.7050970  20.5426660  18.6786600  60.4057060
  29.0417550  31.5104550  66.2313280  29.6839780  30.8097710  66.3445450
  29.5666900  32.2902990  66.0510170  32.8873270  31.7953170  55.9552420
  32.6610850  31.0783610  56.5477060  32.4969470  31.5465610  55.1174170
  30.8155170  32.3099450  69.4349340  31.1511410  32.8966140  70.1127260
  29.8955510  32.1792160  69.6647130  18.6689300  35.8220030  56.7296880
  19.0286940  36.4209370  56.0754150  18.5281640  36.3679920  57.5031910
  32.4689520  29.7125110  57.6166580  32.1811220  30.1737800  58.4044460
  33.2641690  29.2522880  57.8850800  24.6857920  33.2051230  57.5470550
  24.6768020  33.9380920  56.9315060  23.7656280  32.9582810  57.6397510
  20.2864560  28.4266120  58.2917310  19.6792510  29.1665020  58.3012610
  20.7613910  28.5165480  57.4655510  29.8597350  22.5916940  67.9674200
  30.2278170  21.7712150  68.2953770  28.9995550  22.6518830  68.3829850
  33.2259380  21.5473880  58.7761760  32.5972540  21.6519550  58.0619990
  32.7311300  21.7670660  59.5655640  27.6717520  33.2679470  56.2095740
  27.7729500  33.0643460  55.2797720  26.7719260  33.0137750  56.4143520
  25.1943410  23.8259830  60.1919640  24.4859560  24.2946170  60.6333250
  25.4787890  23.1681840  60.8264830  26.8199340  25.2456530  68.1912170
  27.3184590  25.7202350  68.8564020  26.9622290  24.3220050  68.3982200
  29.2258840  20.5510490  61.6315430  29.1026620  20.5696620  60.6824940
  30.1743400  20.5989430  61.7513830  26.3135630  35.7865790  60.9043410
  26.5677130  35.7487180  59.9822780  25.3648110  35.6599120  60.8971660
  23.3978430  22.1344910  57.5670350  24.2468960  22.5715060  57.5010540
  23.0309700  22.4465170  58.3942410  34.0266200  21.4624490  69.0340560
  33.5239800  22.2029890  69.3734370  34.8422860  21.8508490  68.7177350
  32.3188210  26.7057670  62.4801920  31.3778350  26.7207900  62.6549610
  32.6332280  25.9193630  62.9262220  22.2969850  28.3877270  56.0405880
  23.0633120  28.2758630  56.6031310  22.3744540  27.6915240  55.3882650
  20.9916610  25.8202340  56.7238770  21.0720200  24.8729850  56.8356170
  21.8836360  26.1509220  56.8299430  34.3213790  33.8766520  64.1556180
  34.4461210  34.6997690  64.6279990  35.1879350  33.6657250  63.8080330
  21.7931320  35.9697730  63.8273310  22.5293800  35.4213190  64.0981880
  22.1772240  36.8353740  63.6879300  18.6776800  32.0371300  59.7014820
  17.7516580  32.2792440  59.6920230  19.1433230  32.8645560  59.5799570
  24.9033630  35.1428040  55.6498880  25.6962240  35.4316870  55.1980670
  24.3837980  34.7120210  54.9711360  33.9563800  34.3698170  57.0735620
  33.6705310  33.9563310  56.2589800  33.7583350  35.2985880  56.9536140
  25.4211030  30.3631450  55.5141230  25.3161670  29.7483800  56.2402610
  25.2535250  29.8397340  54.7304240  28.6613760  29.4251480  56.1183220
  28.1123860  29.8720780  56.7625960  29.2833020  28.9200730  56.6420890
  24.3288880  28.3842400  58.0148520  24.7505300  28.2182270  58.8579910
  24.4539720  27.5742630  57.5203660  26.8416520  27.4080010  55.2625620
  27.3622180  26.6929030  54.8966770  27.4884920  28.0465880  55.5626130
  25.7450040  19.8874560  67.9344180  25.2967340  19.9098820  67.0889730
  25.1115240  19.4893580  68.5314480  26.1509590  28.7828890  68.5556620
  26.5697700  29.6261620  68.3832860  25.2318220  28.9200930  68.3263400
  30.8261390  27.0682260  68.5156970  30.2996610  27.5924880  67.9122110
  31.1692730  27.7009650  69.1466700  23.2247780  24.4575630  54.9606680
  23.0236840  23.5942990  55.3220020  23.0539830  24.3708990  54.0228280
  24.0017010  35.0881900  69.6714350  23.4638100  35.8127960  69.3523050
  24.2550970  34.6112240  68.8811690  30.7036090  19.2683860  57.4893560
  30.9838380  18.4251760  57.8452980  29.9301820  19.5006970  58.0032310
  22.0230580  21.5576250  54.9484560  22.3256480  21.5643680  54.0403710
  22.7625170  21.2074110  55.4452220  26.8579220  36.3233110  69.9301000
  26.7837920  37.2268250  70.2373370  25.9558060  36.0045010  69.9023070
  25.2415510  20.5010870  55.9340760  24.8937510  19.8234860  55.3543210
  25.4428280  20.0400380  56.7484150  27.4064550  35.4891620  57.5527360
  28.3015340  35.8276590  57.5746120  27.4382180  34.7671030  56.9251640
  21.0460710  30.8618670  55.7814360  21.4835580  31.4048340  56.4371940
  21.5308440  30.0365620  55.7910700  18.2606510  33.6507700  63.2334620
  18.5909520  32.7828760  63.0013260  18.6897510  33.8566220  64.0639580
  22.8568430  31.9816710  60.8936590  22.5563970  31.8581680  61.7940500
  22.7505920  31.1225300  60.4852320  18.7496720  34.5178290  65.9716250
  18.3127710  34.6979090  66.8040400  19.3174400  35.2752910  65.8297970
  35.6260350  31.7613110  55.5963270  34.7953310  31.8289760  56.0670500
  35.8032180  32.6517230  55.2930130  35.0816810  28.5060590  58.0997470
  35.8435720  29.0757240  58.2057160  35.0971180  27.9387790  58.8705780
  18.5821150  27.0298520  62.3305130  17.9269990  26.7610160  61.6864830
  19.4199100  26.9203000  61.8807110  36.0876780  29.3610690  62.9439400
  36.4585610  28.5778010  62.5375370  36.7278710  30.0499790  62.7656700
  33.0710540  30.7447270  68.3569720  32.2570380  31.1744430  68.6195510
  33.4784740  31.3565680  67.7438770  35.1335980  28.7994960  55.2569990
  35.4084820  29.7073840  55.1289210  34.9446720  28.7357490  56.1931980
  31.5311590  21.8239810  56.5523620  31.9496470  21.6370790  55.7120280
  31.2247650  20.9718860  56.8626550  35.0301320  26.7363950  60.2499420
  34.6544920  25.9691880  59.8180710  34.3004440  27.1186650  60.7374350
  19.6197080  27.4151090  66.8708470  19.9870120  27.3278490  67.7504490
  19.0507900  26.6517640  66.7715330  34.4200940  25.8835470  69.8838940
  34.1887030  25.6548220  68.9836890  34.6805490  26.8035020  69.8383830
  17.7959230  24.2397450  58.2730460  16.8923310  24.5027650  58.0982120
  18.2799850  24.5108620  57.4930420  34.3052280  24.9621440  63.5506660
  34.8289760  24.4684090  62.9196830  34.8911700  25.0971800  64.2954230
  34.4842000  25.0461310  67.0726210  33.5344710  25.0124850  67.1871200
  34.6655010  25.9561420  66.8375980  20.3386440  23.2962990  56.1824840
  21.0478140  22.8746210  55.6972120  19.6226380  23.3638220  55.5508190
  19.9860600  19.3502320  55.2227490  20.7088730  19.8911260  55.5408710
  20.2585120  19.0765740  54.3469030  33.7952250  24.2194790  59.4899070
  34.2911370  23.9865660  60.2747950  33.5968320  23.3806630  59.0736710
  19.6752790  18.6008510  65.1250110  20.3228980  18.0505890  64.6845270
  20.0954630  18.8551660  65.9465920  35.2239410  22.8555740  62.0236750
  35.1138690  22.7011780  62.9619020  35.9847000  22.3276680  61.7812160
  33.5705130  18.7949870  68.4819750  34.2077350  19.4084010  68.8478940
  33.7180020  18.8310530  67.5368980  36.1129680  20.6863660  55.2642890
  37.0378990  20.5544840  55.0561180  36.0905470  20.7656480  56.2179340
  36.1868170  21.4574320  57.8899600  35.3919670  21.3919440  58.4192510
  36.3911450  22.3924960  57.8784950  33.1286590  35.4965870  61.8837990
  33.7245660  35.1750440  61.2072410  33.3864740  35.0237690  62.6751260
  19.4284790  18.7564180  67.8675430  19.0799610  19.2128000  68.6333610
  19.0972490  17.8621310  67.9497860  24.7355190  33.4843370  67.6338340
  24.4946550  33.7517930  66.7468860  25.6757830  33.6549100  67.6889200
  35.9959350  35.5037750  68.4348980  35.5017630  35.9006620  67.7176110
  35.3872640  34.8786960  68.8286260  20.8737190  34.8746030  69.1526400
  20.2797510  34.7430730  69.8916440  20.8661030  34.0384170  68.6868500
  30.3192210  18.1678260  67.3556430  29.4452050  18.5013370  67.1529360
  30.2102960  17.6951440  68.1808300  31.2264190  20.3749130  68.7398150
  30.8977550  19.5600890  68.3599880  32.1746490  20.3318940  68.6163840
  33.6798800  36.1461170  65.7135720  33.2201770  36.8976980  65.3393740
  33.0511260  35.4267640  65.6550520  20.5049420  32.2404410  68.1034440
  19.7783480  31.6209700  68.0360390  20.5658570  32.6345020  67.2332520
  24.1094520  34.4549410  64.8883850  24.6259540  33.8436770  64.3632110
  24.7591900  34.9578190  65.3794860  26.8490020  35.3457900  65.7152830
  27.1367830  35.0912200  64.8385840  27.3613240  34.7935260  66.3058400
  28.0667030  19.0848100  66.2949340  27.2838820  19.5593600  66.5746100
  27.7729960  18.1802930  66.1862520  32.6188100  19.7871200  64.3398430
  33.0596190  19.7316300  63.4920030  32.3495690  20.7029210  64.4108610
  34.4826670  19.4186440  62.3507250  34.4215070  18.4747660  62.2038270
  35.2618700  19.5266530  62.8960710  18.7879420  35.5578800  61.3131200
  18.6201460  34.9249480  62.0113090  17.9213930  35.7638200  60.9625390
  19.4107440  19.3895580  58.8163060  20.1686800  19.5024460  58.2427090
  18.9484610  20.2264780  58.7706490  25.9521250  21.5034850  61.8065370
  25.1395760  21.1291740  61.4661250  26.4562890  20.7479930  62.1086560
  30.4546230  18.1677300  63.0448440  31.0575600  18.7397510  63.5196960
  29.7139220  18.7316740  62.8222340  33.5980830  18.5698860  58.3188720
  33.7931460  19.4682310  58.5856150  32.8110700  18.3385940  58.8121670
  20.3942120  34.2512030  58.7581340  19.8689740  34.6320060  58.0543300
  20.3186700  34.8762800  59.4791050  21.7832590  19.9159630  57.3565030
  22.3125350  19.1289430  57.2272980  22.4160910  20.5950820  57.5900560
  23.9770430  19.6534770  60.4110420  23.3473170  18.9522080  60.5780550
  23.4375570  20.4138900  60.1943580  35.1507440  35.8099570  60.0795280
  35.3259630  35.1237310  59.4356200  34.4529010  36.3346620  59.6871950
  22.9935090  36.1994410  57.6330590  23.7253910  35.9153690  57.0854480
  23.2528760  35.9607690  58.5229970  22.1549880  32.3159140  57.6376920
  21.5258760  32.7844240  58.1862750  22.2697710  31.4708360  58.0723110
  29.6099600  26.3664800  43.7878120  29.5293650  25.4519410  43.5169830
  29.1964020  26.8631870  43.0817830  27.7417640  28.1443820  45.6687390
  26.9659740  27.6644260  45.9585960  28.3930570  27.4649470  45.4943550
  21.7583470  28.4563630  46.5463150  20.9268350  28.2012340  46.9459660
  22.3664450  28.5274400  47.2821070  31.7625070  32.5504010  44.4486520
  31.3006600  31.7791250  44.7773690  32.5750620  32.5770080  44.9538970
  21.7384730  32.4903720  46.7421170  22.0412770  31.6001460  46.5631390
  22.4828320  33.0473940  46.5143420  20.1675420  23.4165520  40.3305540
  19.2792120  23.7581490  40.2285420  20.4516610  23.2165840  39.4386370
  18.1308430  26.0171170  46.2145240  18.7024540  25.2493370  46.2148880
  18.1309970  26.3159930  45.3051850  27.9888380  34.8362020  44.0690510
  27.3699820  35.2919520  43.4984950  28.8440160  34.9913480  43.6680210
  27.1826630  30.8201010  45.6757550  27.1134910  29.8790950  45.5146680
  27.9446490  30.9102420  46.2480120  19.3733300  21.4255530  48.0014170
  19.1936140  20.5281280  48.2816930  18.9713380  21.9727400  48.6761120
  28.2131800  23.6271390  45.9026480  28.5896620  22.7543270  45.7900150
  28.1151310  23.9630090  45.0116920  22.3436810  21.9997020  41.3643920
  22.4503560  22.9000750  41.6712680  21.4329170  21.9514990  41.0738570
  31.9955920  21.1221830  42.8354820  32.8165540  20.6318400  42.8780300
  32.0290000  21.7119490  43.5886660  19.9919970  23.9216030  46.6096510
  20.6730080  24.1854400  47.2283910  19.6768020  23.0816900  46.9434520
  24.1844540  24.9683390  45.6969100  24.6922760  25.4664360  46.3374120
  24.7157780  24.1918590  45.5208460  36.2855470  23.1388580  49.3998450
  35.5807640  23.5270290  48.8813560  36.5513390  23.8338870  50.0019380
  22.4680640  19.6081950  49.9632520  22.4699080  20.1254340  49.1578420
  21.6384950  19.1312130  49.9402450  28.8551730  29.7201260  41.4622420
  28.2369000  30.1850710  40.8985140  29.3674980  30.4128740  41.8791930
  23.7183490  29.2477130  48.1406020  23.3852870  29.8746050  48.7827090
  23.8950170  29.7739010  47.3607690  32.2317400  23.0622210  45.6082360
  31.5272970  23.3507100  46.1885470  32.5929560  23.8722320  45.2481920
  22.1495970  21.3191910  47.9702970  22.4912780  22.1633960  47.6756840
  21.2111780  21.4675650  48.0868310  22.9302590  31.2157930  49.9555200
  23.5476590  31.8909010  49.6739650  22.0695710  31.6245910  49.8642700
  18.2234930  30.4057790  38.8362050  17.8462910  30.8944890  38.1046950
  18.4808000  31.0783070  39.4668580  33.8480180  32.6797340  47.8709840
  33.1643700  33.3496450  47.8626510  34.3874470  32.8777990  47.1054700
  35.3004320  22.5077000  45.9991570  34.3529230  22.5415980  46.1307000
  35.6254310  23.3215950  46.3840930  25.8323860  18.8074180  44.2947560
  26.1398840  18.2521070  43.5783060  24.9024560  18.9418640  44.1120550
  31.3838920  34.5241470  46.5855020  31.3966080  34.1203760  45.7177280
  30.8314140  35.2988760  46.4816450  32.6784340  31.2457690  41.6745190
  32.5680670  30.3032020  41.7994610  32.6752590  31.6073330  42.5607950
  30.7824360  29.4271310  47.9137630  31.1993150  29.2131420  47.0791090
  31.5064180  29.6844100  48.4846250  28.2204620  26.8723010  41.0307680
  27.2933900  26.8060390  41.2596150  28.3729440  27.8103140  40.9162920
  28.2073700  23.1440010  38.0274840  27.2677370  23.3053970  38.1127300
  28.5256960  23.8625690  37.4810830  34.7286460  27.8258530  48.0053870
  33.9005090  27.8951620  47.5304000  35.3236940  28.4112840  47.5369700
  32.2501910  28.4343310  41.5342930  31.6314330  28.0962860  40.8869230
  32.2326360  27.7903070  42.2422120  31.6928470  24.6127850  48.9508740
  31.2799650  25.4381560  49.2048730  30.9604420  24.0272890  48.7585100
  23.8261260  27.3987750  43.8127410  23.4218260  26.6865000  43.3173310
  23.9124380  27.0540990  44.7015450  24.2942960  31.0855310  45.9766620
  23.9971250  30.4800780  45.2974400  25.2442780  31.1232620  45.8655980
  22.5389880  24.1730960  47.5926450  23.0904470  24.2826300  46.8179700
  23.0533390  24.5468560  48.3081680  32.3828570  34.6587180  49.6389720
  31.9059130  35.4659370  49.4462330  31.6990360  34.0065510  49.7915930
  23.3861390  30.8237000  52.6274420  22.4889920  31.0476970  52.8747820
  23.4114260  30.9471940  51.6785820  30.4266610  27.6730120  38.5415680
  30.8659890  26.8352550  38.3953500  31.1395030  28.3059520  38.6279820
  22.2132610  27.6950320  51.2031790  22.0740380  28.5673120  51.5719190
  21.3313970  27.3523130  51.0579730  28.5361990  32.6126190  42.5096920
  28.9757900  33.3550520  42.0952310  28.4748880  32.8552760  43.4335880
  24.0112960  33.6372020  53.4116940  23.9828390  34.0414970  52.5445370
  23.8477930  32.7082380  53.2488540  34.0083750  18.9272930  36.8556720
  33.6956410  19.0199760  37.7555790  34.7696220  19.5053960  36.8054150
  20.5265890  26.2932730  41.3134060  20.4063490  27.0194820  40.7015330
  20.2166780  25.5235640  40.8361970  35.9627780  34.4199120  54.7081110
  36.4387500  34.8982010  55.3870190  36.5834940  34.3516610  53.9826610
  18.1651260  29.4647870  47.1202700  18.2431680  29.5996640  46.1758420
  18.7792940  28.7563760  47.3130820  19.4098890  31.1648060  43.5308880
  19.0026970  31.3062650  42.6762480  20.3011900  30.8808220  43.3280090
  35.3661030  31.6111970  51.8681120  35.4924090  31.3723850  50.9498300
  35.4082410  30.7796510  52.3403200  29.2277770  35.3139970  50.4375930
  29.7422440  35.2247980  51.2398360  28.3846850  35.6599670  50.7303840
  23.6820550  35.3793840  41.6431550  23.5063030  34.4629380  41.4299350
  22.8276290  35.7381130  41.8829350  30.9058300  33.1082870  38.4257930
  30.2123460  33.1060160  37.7660210  31.6481160  32.6842190  37.9952100
  30.4708230  34.7345580  42.5006420  30.9265180  33.9534960  42.8145040
  30.8100750  35.4452400  43.0447600  35.2185040  23.6644430  52.8330860
  34.6029310  24.1724100  52.3046320  34.8981460  22.7642760  52.7756800
  18.2210780  30.5062040  49.6597160  18.3841820  30.0367400  48.8416530
  18.6863230  29.9985600  50.3246000  22.9929550  19.6367800  44.6957730
  22.5497700  20.4177340  44.3642250  23.5514540  19.9597690  45.4028670
  27.2799360  22.5036320  50.2993050  26.8178730  22.7119340  51.1112990
  26.8777470  21.6895670  49.9963720  32.2803870  23.7245270  51.4289710
  31.4297460  23.4251020  51.7498780  32.1205660  23.9687280  50.5173530
  29.3753580  25.2247020  53.5288500  29.7006990  24.3910770  53.1890730
  30.1633910  25.7475540  53.6766830  26.1088370  19.2578500  39.5763560
  25.4842550  19.2538370  40.3016870  26.0218490  18.3909460  39.1799530
  25.0305450  20.1815130  46.5547330  25.3277780  21.0877960  46.4739350
  25.5791010  19.6933910  45.9406900  22.7843770  24.7601370  42.4238980
  22.5584690  24.5438540  43.3285600  22.0036300  25.1929830  42.0784950
  30.0141530  24.7664740  41.0229630  29.4150420  25.4900540  40.8393250
  30.5621140  24.7041520  40.2406080  25.2242980  25.6586950  53.0899250
  25.1286580  24.7181680  52.9399650  26.0674960  25.8802020  52.6947320
  28.6206400  23.4028280  43.0532910  29.0135970  23.7200480  42.2401600
  28.9823250  22.5240160  43.1677430  20.3553520  22.0700620  51.2433030
  19.9616910  22.9175830  51.4505810  19.6671920  21.4326990  51.4341670
  26.9298570  22.1535590  54.3129770  26.2396890  21.9607790  54.9475860
  27.6730870  22.4370230  54.8454070  17.6570570  19.9929080  45.2763110
  17.3683620  20.5631940  45.9888090  18.4016330  19.5133530  45.6394340
  17.8440800  23.9349200  36.4865830  17.7615470  24.8779960  36.6280820
  17.4923860  23.7924110  35.6078180  29.2061540  25.9934030  47.1483690
  28.4742660  26.5020840  47.4973790  28.8085880  25.1764010  46.8472470
  25.6438930  22.6688230  45.5536180  25.6474990  22.2278180  44.7040720
  26.5390050  22.9905560  45.6608000  21.4941310  22.5514720  44.5130390
  21.1541360  23.0289950  45.2697440  20.7318630  22.0979840  44.1531490
  25.7059080  23.6700310  38.5442940  25.8271900  23.6286790  39.4928760
  25.3207590  24.5324460  38.3889670  29.6687450  21.4467710  46.5606630
  29.6860190  21.8976360  47.4048480  29.4203030  20.5473350  46.7740070
  24.7180580  25.9801450  37.9426240  24.1497480  25.5319700  37.3162150
  25.4269580  26.3394230  37.4091390  33.0958200  18.8599890  52.3993010
  33.4203970  18.1289550  52.9250990  33.1314710  18.5413530  51.4974000
  19.7949760  29.8813470  51.8192970  19.4104550  29.2407140  52.4175930
  20.1061950  30.5849590  52.3887700  25.9446900  26.7290010  47.3001590
  26.3117030  26.2548580  48.0462930  25.7551960  27.6031580  47.6409930
  18.8087390  21.4733700  43.4295060  18.5234310  21.1089370  44.2673680
  18.7466250  20.7414160  42.8158200  23.7346270  25.7698650  49.6185800
  23.4303340  26.6490630  49.8436160  24.6892730  25.8298440  49.6543240
  22.2628060  29.9759640  40.2152650  21.4890320  29.4357260  40.0551370
  22.9922690  29.4566250  39.8770410  33.0216040  28.9725000  46.0079040
  33.7415160  29.4680290  45.6175150  32.8197860  28.2942890  45.3632910
  28.4825980  20.3662960  40.1508430  27.6690590  19.8676130  40.0753740
  28.2887930  21.2061210  39.7344780  28.4034840  29.0434060  51.8948040
  28.3372150  28.1229730  51.6405630  27.7739980  29.1409500  52.6092680
  31.1974370  24.7382610  38.4470590  32.0853990  25.0499840  38.2721930
  31.1679460  23.8654860  38.0551170  22.3065460  29.6440020  43.8531460
  22.8244130  28.8408280  43.7988350  21.8549480  29.5819160  44.6948290
  27.1934960  30.9106300  39.1258760  27.5350660  31.6548530  38.6302080
  26.3647670  31.2237420  39.4883590  19.7910000  26.6101390  50.7657160
  19.4324940  27.2755240  51.3530500  19.4964560  25.7784940  51.1369780
  22.9923120  27.0685630  53.6496710  22.6923260  27.2142810  52.7524530
  23.7634360  26.5090920  53.5570100  28.3351570  31.8654630  51.6451840
  28.3496110  30.9335590  51.4270750  27.6276670  31.9514390  52.2841610
  33.4688640  26.0494450  37.9150450  33.3852360  26.4808670  37.0646890
  34.1882830  26.5092800  38.3477270  34.5462780  28.5061970  50.9920420
  33.8210970  29.0990750  50.7949810  35.0738240  28.4985510  50.1933790
  30.0762370  30.2322140  44.4904270  30.4286190  29.6350270  43.8305640
  29.1924700  29.9066370  44.6612520  26.1625650  30.9919830  41.8974680
  26.8496780  31.5389040  42.2782270  25.3758070  31.5360560  41.9324290
  18.3018050  26.6092650  37.3891760  19.1712900  26.8917450  37.6727680
  17.8108370  27.4228520  37.2740570  25.4652860  27.9965860  41.5100040
  25.9215640  28.8071110  41.7360230  25.1141070  27.6789000  42.3418530
  27.7685470  33.5072200  48.7392340  28.4127690  33.7131580  49.4165760
  28.1314910  32.7460600  48.2863190  21.3664640  18.3403510  41.9822560
  21.2379270  18.3321410  42.9307480  20.5426660  18.6786600  41.6313570
  29.0417550  31.5104550  47.4569790  29.6839780  30.8097710  47.5701960
  29.5666900  32.2902990  47.2766680  30.8155170  32.3099450  50.6605850
  31.1511410  32.8966140  51.3383770  29.8955510  32.1792160  50.8903640
  18.6689300  35.8220030  37.9553390  19.0286940  36.4209370  37.3010660
  18.5281640  36.3679920  38.7288420  18.3658570  20.0994630  51.4429260
  17.6517090  20.2991550  52.0481870  18.7853610  19.3234200  51.8144060
  32.4689520  29.7125110  38.8423090  32.1811220  30.1737800  39.6300970
  33.2641690  29.2522880  39.1107310  18.6531160  34.0874890  52.4295790
  18.7622280  33.1469630  52.2891180  18.0011720  34.3529640  51.7809520
  26.6443750  32.3590780  53.8293910  26.3240620  31.6400020  54.3739600
  25.9702110  33.0345850  53.9029970  24.6857920  33.2051230  38.7727060
  24.6768020  33.9380920  38.1571570  23.7656280  32.9582810  38.8654020
  20.2864560  28.4266120  39.5173820  19.6792510  29.1665020  39.5269120
  20.7613910  28.5165480  38.6912020  29.8597350  22.5916940  49.1930710
  30.2278170  21.7712150  49.5210280  28.9995550  22.6518830  49.6086360
  33.2259380  21.5473880  40.0018270  32.5972540  21.6519550  39.2876500
  32.7311300  21.7670660  40.7912150  27.6717520  33.2679470  37.4352250
  27.7729500  33.0643460  36.5054230  26.7719260  33.0137750  37.6400030
  25.1943410  23.8259830  41.4176150  24.4859560  24.2946170  41.8589760
  25.4787890  23.1681840  42.0521340  26.8199340  25.2456530  49.4168680
  27.3184590  25.7202350  50.0820530  26.9622290  24.3220050  49.6238710
  29.2258840  20.5510490  42.8571940  29.1026620  20.5696620  41.9081450
  30.1743400  20.5989430  42.9770340  26.3135630  35.7865790  42.1299920
  26.5677130  35.7487180  41.2079290  25.3648110  35.6599120  42.1228170
  23.3978430  22.1344910  38.7926860  24.2468960  22.5715060  38.7267050
  23.0309700  22.4465170  39.6198920  34.0266200  21.4624490  50.2597070
  33.5239800  22.2029890  50.5990880  34.8422860  21.8508490  49.9433860
  32.3188210  26.7057670  43.7058430  31.3778350  26.7207900  43.8806120
  32.6332280  25.9193630  44.1518730  22.2969850  28.3877270  37.2662390
  23.0633120  28.2758630  37.8287820  22.3744540  27.6915240  36.6139160
  20.9916610  25.8202340  37.9495280  21.0720200  24.8729850  38.0612680
  21.8836360  26.1509220  38.0555940  34.3213790  33.8766520  45.3812690
  34.4461210  34.6997690  45.8536500  35.1879350  33.6657250  45.0336840
  21.7931320  35.9697730  45.0529820  22.5293800  35.4213190  45.3238390
  22.1772240  36.8353740  44.9135810  18.6776800  32.0371300  40.9271330
  17.7516580  32.2792440  40.9176740  19.1433230  32.8645560  40.8056080
  20.7989600  35.1543800  54.2415400  21.6002330  35.4755850  54.6550800
  20.2841420  34.7939380  54.9635310  24.9033630  35.1428040  36.8755390
  25.6962240  35.4316870  36.4237180  24.3837980  34.7120210  36.1967870
  29.6354230  31.2623670  54.1890810  29.0292390  31.2855270  53.4486560
  29.3308340  30.5306710  54.7258060  31.0654600  34.9903960  52.8000220
  32.0176350  34.9061980  52.7500460  30.9182820  35.6545670  53.4734010
  18.5187410  27.6417260  53.1851450  19.0226430  27.0624540  53.7567680
  17.7794830  27.9257490  53.7227820  25.4211030  30.3631450  36.7397740
  25.3161670  29.7483800  37.4659120  25.2535250  29.8397340  35.9560750
  25.5725350  29.0488250  52.7186970  24.8071020  29.6173250  52.6341640
  25.7541310  28.7564460  51.8255200  28.6613760  29.4251480  37.3439730
  28.1123860  29.8720780  37.9882470  29.2833020  28.9200730  37.8677400
  32.7148700  30.7793580  53.2761990  33.4558170  31.1169340  52.7729450
  31.9521380  30.9485640  52.7231760  20.5510490  25.7846850  54.0801520
  20.5915830  25.4860720  54.9886750  21.4055990  26.1854460  53.9209040
  24.3288880  28.3842400  39.2405030  24.7505300  28.2182270  40.0836420
  24.4539720  27.5742630  38.7460170  22.4916300  24.3638950  52.0476010
  21.9612760  23.8729900  51.4199350  23.1604370  24.7923150  51.5133940
  26.8416520  27.4080010  36.4882130  27.3622180  26.6929030  36.1223280
  27.4884920  28.0465880  36.7882640  31.3894360  28.8308410  51.8117200
  31.8035380  28.9853490  52.6607620  30.4545360  28.9563630  51.9742980
  31.8616530  26.1704570  53.8156350  32.4437300  25.4156890  53.7276830
  32.0378300  26.7012010  53.0387830  22.9788600  21.3301320  52.1273300
  22.8845470  20.7122070  51.4024170  22.3985990  22.0567610  51.9003210
  25.7450040  19.8874560  49.1600690  25.2967340  19.9098820  48.3146240
  25.1115240  19.4893580  49.7570990  26.1509590  28.7828890  49.7813130
  26.5697700  29.6261620  49.6089370  25.2318220  28.9200930  49.5519910
  28.4873490  26.5145070  51.1650970  28.6069700  25.9186210  51.9045810
  29.3467490  26.5514760  50.7452270  30.8261390  27.0682260  49.7413480
  30.2996610  27.5924880  49.1378620  31.1692730  27.7009650  50.3723210
  23.2247780  24.4575630  36.1863190  23.0236840  23.5942990  36.5476530
  23.0539830  24.3708990  35.2484790  24.0017010  35.0881900  50.8970860
  23.4638100  35.8127960  50.5779560  24.2550970  34.6112240  50.1068200
  25.2542260  23.0566420  52.4226790  25.8441950  22.7482270  53.1104610
  24.4362500  22.5846170  52.5786690  30.0735690  22.6732230  52.6559810
  29.3851210  22.0113770  52.5909800  30.7941710  22.2270500  53.1008270
  30.7036090  19.2683860  38.7150070  30.9838380  18.4251760  39.0709490
  29.9301820  19.5006970  39.2288820  22.0230580  21.5576250  36.1741070
  22.3256480  21.5643680  35.2660220  22.7625170  21.2074110  36.6708730
  26.8579220  36.3233110  51.1557510  26.7837920  37.2268250  51.4629880
  25.9558060  36.0045010  51.1279580  25.2415510  20.5010870  37.1597270
  24.8937510  19.8234860  36.5799720  25.4428280  20.0400380  37.9740660
  27.4064550  35.4891620  38.7783870  28.3015340  35.8276590  38.8002630
  27.4382180  34.7671030  38.1508150  21.0460710  30.8618670  37.0070870
  21.4835580  31.4048340  37.6628450  21.5308440  30.0365620  37.0167210
  18.2606510  33.6507700  44.4591130  18.5909520  32.7828760  44.2269770
  18.6897510  33.8566220  45.2896090  22.8568430  31.9816710  42.1193100
  22.5563970  31.8581680  43.0197010  22.7505920  31.1225300  41.7108830
  18.7496720  34.5178290  47.1972760  18.3127710  34.6979090  48.0296910
  19.3174400  35.2752910  47.0554480  34.3858900  34.0195290  51.4850070
  33.7860890  34.0787850  50.7413990  34.5152800  33.0800270  51.6146920
  35.0816810  28.5060590  39.3253980  35.8435720  29.0757240  39.4313670
  35.0971180  27.9387790  40.0962290  18.5821150  27.0298520  43.5561640
  17.9269990  26.7610160  42.9121340  19.4199100  26.9203000  43.1063620
  36.0876780  29.3610690  44.1695910  36.4585610  28.5778010  43.7631880
  36.7278710  30.0499790  43.9913210  33.0710540  30.7447270  49.5826230
  32.2570380  31.1744430  49.8452020  33.4784740  31.3565680  48.9695280
  35.1335980  28.7994960  36.4826500  35.4084820  29.7073840  36.3545720
  34.9446720  28.7357490  37.4188490  31.5311590  21.8239810  37.7780130
  31.9496470  21.6370790  36.9376790  31.2247650  20.9718860  38.0883060
  35.0301320  26.7363950  41.4755930  34.6544920  25.9691880  41.0437220
  34.3004440  27.1186650  41.9630860  19.6197080  27.4151090  48.0964980
  19.9870120  27.3278490  48.9761000  19.0507900  26.6517640  47.9971840
  34.4200940  25.8835470  51.1095450  34.1887030  25.6548220  50.2093400
  34.6805490  26.8035020  51.0640340  19.1713080  24.3260180  52.0023400
  18.2769130  24.2926940  52.3417110  19.7110630  24.5246970  52.7674650
  32.8589010  21.1091900  53.8875150  33.7359190  21.1175300  54.2709150
  32.8709850  20.3722740  53.2767500  17.7959230  24.2397450  39.4986970
  16.8923310  24.5027650  39.3238630  18.2799850  24.5108620  38.7186930
  34.3052280  24.9621440  44.7763170  34.8289760  24.4684090  44.1453340
  34.8911700  25.0971800  45.5210740  34.4842000  25.0461310  48.2982720
  33.5344710  25.0124850  48.4127710  34.6655010  25.9561420  48.0632490
  20.3386440  23.2962990  37.4081350  21.0478140  22.8746210  36.9228630
  19.6226380  23.3638220  36.7764700  19.9860600  19.3502320  36.4484000
  20.7088730  19.8911260  36.7665220  20.2585120  19.0765740  35.5725540
  33.7952250  24.2194790  40.7155580  34.2911370  23.9865660  41.5004460
  33.5968320  23.3806630  40.2993220  19.6752790  18.6008510  46.3506620
  20.3228980  18.0505890  45.9101780  20.0954630  18.8551660  47.1722430
  35.2239410  22.8555740  43.2493260  35.1138690  22.7011780  44.1875530
  35.9847000  22.3276680  43.0068670  33.5705130  18.7949870  49.7076260
  34.2077350  19.4084010  50.0735450  33.7180020  18.8310530  48.7625490
  36.1129680  20.6863660  36.4899400  37.0378990  20.5544840  36.2817690
  36.0905470  20.7656480  37.4435850  36.1868170  21.4574320  39.1156110
  35.3919670  21.3919440  39.6449020  36.3911450  22.3924960  39.1041460
  33.1286590  35.4965870  43.1094500  33.7245660  35.1750440  42.4328920
  33.3864740  35.0237690  43.9007770  19.4284790  18.7564180  49.0931940
  19.0799610  19.2128000  49.8590120  19.0972490  17.8621310  49.1754370
  21.0349160  31.9283780  53.2585130  20.9918790  31.5576690  54.1399590
  21.1660170  32.8661350  53.3986950  24.7355190  33.4843370  48.8594850
  24.4946550  33.7517930  47.9725370  25.6757830  33.6549100  48.9145710
  26.9409610  19.9476060  52.6151360  26.8798500  20.5397890  53.3646770
  27.8809990  19.8402020  52.4701620  29.5784170  19.6046120  52.2543650
  30.1924580  19.9225410  51.5924730  30.1233730  19.1194710  52.8739510
  35.9959350  35.5037750  49.6605490  35.5017630  35.9006620  48.9432620
  35.3872640  34.8786960  50.0542770  20.1005430  18.2840380  52.3682710
  20.6488420  18.1028430  51.6048820  20.1660740  17.4934490  52.9039020
  20.8737190  34.8746030  50.3782910  20.2797510  34.7430730  51.1172950
  20.8661030  34.0384170  49.9125010  30.3192210  18.1678260  48.5812940
  29.4452050  18.5013370  48.3785870  30.2102960  17.6951440  49.4064810
  31.2264190  20.3749130  49.9654660  30.8977550  19.5600890  49.5856390
  32.1746490  20.3318940  49.8420350  33.6798800  36.1461170  46.9392230
  33.2201770  36.8976980  46.5650250  33.0511260  35.4267640  46.8807030
  20.5049420  32.2404410  49.3290950  19.7783480  31.6209700  49.2616900
  20.5658570  32.6345020  48.4589030  24.1094520  34.4549410  46.1140360
  24.6259540  33.8436770  45.5888620  24.7591900  34.9578190  46.6051370
  26.8490020  35.3457900  46.9409340  27.1367830  35.0912200  46.0642350
  27.3613240  34.7935260  47.5314910  28.0667030  19.0848100  47.5205850
  27.2838820  19.5593600  47.8002610  27.7729960  18.1802930  47.4119030
  32.6188100  19.7871200  45.5654940  33.0596190  19.7316300  44.7176540
  32.3495690  20.7029210  45.6365120  34.4826670  19.4186440  43.5763760
  34.4215070  18.4747660  43.4294780  35.2618700  19.5266530  44.1217220
  18.7879420  35.5578800  42.5387710  18.6201460  34.9249480  43.2369600
  17.9213930  35.7638200  42.1881900  19.4107440  19.3895580  40.0419570
  20.1686800  19.5024460  39.4683600  18.9484610  20.2264780  39.9963000
  25.9521250  21.5034850  43.0321880  25.1395760  21.1291740  42.6917760
  26.4562890  20.7479930  43.3343070  30.4546230  18.1677300  44.2704950
  31.0575600  18.7397510  44.7453470  29.7139220  18.7316740  44.0478850
  33.5980830  18.5698860  39.5445230  33.7931460  19.4682310  39.8112660
  32.8110700  18.3385940  40.0378180  20.3942120  34.2512030  39.9837850
  19.8689740  34.6320060  39.2799810  20.3186700  34.8762800  40.7047560
  21.7832590  19.9159630  38.5821540  22.3125350  19.1289430  38.4529490
  22.4160910  20.5950820  38.8157070  23.9770430  19.6534770  41.6366930
  23.3473170  18.9522080  41.8037060  23.4375570  20.4138900  41.4200090
  26.9162380  36.2674000  54.3077540  27.8429690  36.0318270  54.3513500
  26.9012810  37.0946000  53.8263570  24.1025990  18.9318750  54.0719420
  23.8210260  19.4352350  53.3080240  24.4845690  18.1340500  53.7061550
  22.9935090  36.1994410  38.8587100  23.7253910  35.9153690  38.3110990
  23.2528760  35.9607690  39.7486480  22.1549880  32.3159140  38.8633430
  21.5258760  32.7844240  39.4119260  22.2697710  31.4708360  39.2979620
  30.7041450  18.3472330  54.6499890  30.5906900  18.6666940  55.5451410
  31.5211190  18.7484840  54.3537170  33.4839940  35.4943860  54.1318580
  34.2765260  34.9993090  53.9244540  33.7773090  36.1734000  54.7394190
  29.6099600  26.3664800  25.0134630  29.5293650  25.4519410  24.7426340
  29.1964020  26.8631870  24.3074340  27.7417640  28.1443820  26.8943900
  26.9659740  27.6644260  27.1842470  28.3930570  27.4649470  26.7200060
  21.7583470  28.4563630  27.7719660  20.9268350  28.2012340  28.1716170
  22.3664450  28.5274400  28.5077580  31.7625070  32.5504010  25.6743030
  31.3006600  31.7791250  26.0030200  32.5750620  32.5770080  26.1795480
  21.7384730  32.4903720  27.9677680  22.0412770  31.6001460  27.7887900
  22.4828320  33.0473940  27.7399930  20.1675420  23.4165520  21.5562050
  19.2792120  23.7581490  21.4541930  20.4516610  23.2165840  20.6642880
  18.1308430  26.0171170  27.4401750  18.7024540  25.2493370  27.4405390
  18.1309970  26.3159930  26.5308360  27.9888380  34.8362020  25.2947020
  27.3699820  35.2919520  24.7241460  28.8440160  34.9913480  24.8936720
  27.1826630  30.8201010  26.9014060  27.1134910  29.8790950  26.7403190
  27.9446490  30.9102420  27.4736630  19.3733300  21.4255530  29.2270680
  19.1936140  20.5281280  29.5073440  18.9713380  21.9727400  29.9017630
  28.2131800  23.6271390  27.1282990  28.5896620  22.7543270  27.0156660
  28.1151310  23.9630090  26.2373430  22.3436810  21.9997020  22.5900430
  22.4503560  22.9000750  22.8969190  21.4329170  21.9514990  22.2995080
  31.9955920  21.1221830  24.0611330  32.8165540  20.6318400  24.1036810
  32.0290000  21.7119490  24.8143170  19.9919970  23.9216030  27.8353020
  20.6730080  24.1854400  28.4540420  19.6768020  23.0816900  28.1691030
  24.1844540  24.9683390  26.9225610  24.6922760  25.4664360  27.5630630
  24.7157780  24.1918590  26.7464970  36.2855470  23.1388580  30.6254960
  35.5807640  23.5270290  30.1070070  36.5513390  23.8338870  31.2275890
  22.4680640  19.6081950  31.1889030  22.4699080  20.1254340  30.3834930
  21.6384950  19.1312130  31.1658960  28.8551730  29.7201260  22.6878930
  28.2369000  30.1850710  22.1241650  29.3674980  30.4128740  23.1048440
  23.7183490  29.2477130  29.3662530  23.3852870  29.8746050  30.0083600
  23.8950170  29.7739010  28.5864200  32.2317400  23.0622210  26.8338870
  31.5272970  23.3507100  27.4141980  32.5929560  23.8722320  26.4738430
  22.1495970  21.3191910  29.1959480  22.4912780  22.1633960  28.9013350
  21.2111780  21.4675650  29.3124820  22.9302590  31.2157930  31.1811710
  23.5476590  31.8909010  30.8996160  22.0695710  31.6245910  31.0899210
  18.2234930  30.4057790  20.0618560  17.8462910  30.8944890  19.3303460
  18.4808000  31.0783070  20.6925090  33.8480180  32.6797340  29.0966350
  33.1643700  33.3496450  29.0883020  34.3874470  32.8777990  28.3311210
  35.3004320  22.5077000  27.2248080  34.3529230  22.5415980  27.3563510
  35.6254310  23.3215950  27.6097440  25.8323860  18.8074180  25.5204070
  26.1398840  18.2521070  24.8039570  24.9024560  18.9418640  25.3377060
  31.3838920  34.5241470  27.8111530  31.3966080  34.1203760  26.9433790
  30.8314140  35.2988760  27.7072960  32.6784340  31.2457690  22.9001700
  32.5680670  30.3032020  23.0251120  32.6752590  31.6073330  23.7864460
  30.7824360  29.4271310  29.1394140  31.1993150  29.2131420  28.3047600
  31.5064180  29.6844100  29.7102760  28.2204620  26.8723010  22.2564190
  27.2933900  26.8060390  22.4852660  28.3729440  27.8103140  22.1419430
  28.2073700  23.1440010  19.2531350  27.2677370  23.3053970  19.3383810
  28.5256960  23.8625690  18.7067340  34.7286460  27.8258530  29.2310380
  33.9005090  27.8951620  28.7560510  35.3236940  28.4112840  28.7626210
  32.2501910  28.4343310  22.7599440  31.6314330  28.0962860  22.1125740
  32.2326360  27.7903070  23.4678630  31.6928470  24.6127850  30.1765250
  31.2799650  25.4381560  30.4305240  30.9604420  24.0272890  29.9841610
  23.8261260  27.3987750  25.0383920  23.4218260  26.6865000  24.5429820
  23.9124380  27.0540990  25.9271960  24.2942960  31.0855310  27.2023130
  23.9971250  30.4800780  26.5230910  25.2442780  31.1232620  27.0912490
  22.5389880  24.1730960  28.8182960  23.0904470  24.2826300  28.0436210
  23.0533390  24.5468560  29.5338190  32.3828570  34.6587180  30.8646230
  31.9059130  35.4659370  30.6718840  31.6990360  34.0065510  31.0172440
  23.3861390  30.8237000  33.8530930  22.4889920  31.0476970  34.1004330
  23.4114260  30.9471940  32.9042330  30.4266610  27.6730120  19.7672190
  30.8659890  26.8352550  19.6210010  31.1395030  28.3059520  19.8536330
  22.2132610  27.6950320  32.4288300  22.0740380  28.5673120  32.7975700
  21.3313970  27.3523130  32.2836240  28.5361990  32.6126190  23.7353430
  28.9757900  33.3550520  23.3208820  28.4748880  32.8552760  24.6592390
  24.0112960  33.6372020  34.6373450  23.9828390  34.0414970  33.7701880
  23.8477930  32.7082380  34.4745050  34.0083750  18.9272930  18.0813230
  33.6956410  19.0199760  18.9812300  34.7696220  19.5053960  18.0310660
  20.5265890  26.2932730  22.5390570  20.4063490  27.0194820  21.9271840
  20.2166780  25.5235640  22.0618480  18.1651260  29.4647870  28.3459210
  18.2431680  29.5996640  27.4014930  18.7792940  28.7563760  28.5387330
  19.4098890  31.1648060  24.7565390  19.0026970  31.3062650  23.9018990
  20.3011900  30.8808220  24.5536600  29.2277770  35.3139970  31.6632440
  29.7422440  35.2247980  32.4654870  28.3846850  35.6599670  31.9560350
  31.2032170  35.5995310  21.0916440  31.0433310  35.3098250  21.9898270
  31.0378880  34.8235440  20.5561670  23.6820550  35.3793840  22.8688060
  23.5063030  34.4629380  22.6555860  22.8276290  35.7381130  23.1085860
  30.9058300  33.1082870  19.6514440  30.2123460  33.1060160  18.9916720
  31.6481160  32.6842190  19.2208610  30.4708230  34.7345580  23.7262930
  30.9265180  33.9534960  24.0401550  30.8100750  35.4452400  24.2704110
  35.2185040  23.6644430  34.0587370  34.6029310  24.1724100  33.5302830
  34.8981460  22.7642760  34.0013310  18.2210780  30.5062040  30.8853670
  18.3841820  30.0367400  30.0673040  18.6863230  29.9985600  31.5502510
  22.9929550  19.6367800  25.9214240  22.5497700  20.4177340  25.5898760
  23.5514540  19.9597690  26.6285180  27.2799360  22.5036320  31.5249560
  26.8178730  22.7119340  32.3369500  26.8777470  21.6895670  31.2220230
  32.2803870  23.7245270  32.6546220  31.4297460  23.4251020  32.9755290
  32.1205660  23.9687280  31.7430040  29.3753580  25.2247020  34.7545010
  29.7006990  24.3910770  34.4147240  30.1633910  25.7475540  34.9023340
  26.1088370  19.2578500  20.8020070  25.4842550  19.2538370  21.5273380
  26.0218490  18.3909460  20.4056040  25.0305450  20.1815130  27.7803840
  25.3277780  21.0877960  27.6995860  25.5791010  19.6933910  27.1663410
  22.7843770  24.7601370  23.6495490  22.5584690  24.5438540  24.5542110
  22.0036300  25.1929830  23.3041460  30.0141530  24.7664740  22.2486140
  29.4150420  25.4900540  22.0649760  30.5621140  24.7041520  21.4662590
  25.2242980  25.6586950  34.3155760  25.1286580  24.7181680  34.1656160
  26.0674960  25.8802020  33.9203830  28.6206400  23.4028280  24.2789420
  29.0135970  23.7200480  23.4658110  28.9823250  22.5240160  24.3933940
  20.3553520  22.0700620  32.4689540  19.9616910  22.9175830  32.6762320
  19.6671920  21.4326990  32.6598180  26.9298570  22.1535590  35.5386280
  26.2396890  21.9607790  36.1732370  27.6730870  22.4370230  36.0710580
  17.6570570  19.9929080  26.5019620  17.3683620  20.5631940  27.2144600
  18.4016330  19.5133530  26.8650850  17.8440800  23.9349200  17.7122340
  17.7615470  24.8779960  17.8537330  17.4923860  23.7924110  16.8334690
  29.2061540  25.9934030  28.3740200  28.4742660  26.5020840  28.7230300
  28.8085880  25.1764010  28.0728980  25.6438930  22.6688230  26.7792690
  25.6474990  22.2278180  25.9297230  26.5390050  22.9905560  26.8864510
  21.4941310  22.5514720  25.7386900  21.1541360  23.0289950  26.4953950
  20.7318630  22.0979840  25.3788000  25.7059080  23.6700310  19.7699450
  25.8271900  23.6286790  20.7185270  25.3207590  24.5324460  19.6146180
  29.6687450  21.4467710  27.7863140  29.6860190  21.8976360  28.6304990
  29.4203030  20.5473350  27.9996580  24.7180580  25.9801450  19.1682750
  24.1497480  25.5319700  18.5418660  25.4269580  26.3394230  18.6347900
  33.0958200  18.8599890  33.6249520  33.4203970  18.1289550  34.1507500
  33.1314710  18.5413530  32.7230510  19.7949760  29.8813470  33.0449480
  19.4104550  29.2407140  33.6432440  20.1061950  30.5849590  33.6144210
  25.9446900  26.7290010  28.5258100  26.3117030  26.2548580  29.2719440
  25.7551960  27.6031580  28.8666440  18.8087390  21.4733700  24.6551570
  18.5234310  21.1089370  25.4930190  18.7466250  20.7414160  24.0414710
  23.7346270  25.7698650  30.8442310  23.4303340  26.6490630  31.0692670
  24.6892730  25.8298440  30.8799750  22.2628060  29.9759640  21.4409160
  21.4890320  29.4357260  21.2807880  22.9922690  29.4566250  21.1026920
  33.0216040  28.9725000  27.2335550  33.7415160  29.4680290  26.8431660
  32.8197860  28.2942890  26.5889420  28.4825980  20.3662960  21.3764940
  27.6690590  19.8676130  21.3010250  28.2887930  21.2061210  20.9601290
  28.4034840  29.0434060  33.1204550  28.3372150  28.1229730  32.8662140
  27.7739980  29.1409500  33.8349190  31.1974370  24.7382610  19.6727100
  32.0853990  25.0499840  19.4978440  31.1679460  23.8654860  19.2807680
  22.3065460  29.6440020  25.0787970  22.8244130  28.8408280  25.0244860
  21.8549480  29.5819160  25.9204800  27.1934960  30.9106300  20.3515270
  27.5350660  31.6548530  19.8558590  26.3647670  31.2237420  20.7140100
  19.7910000  26.6101390  31.9913670  19.4324940  27.2755240  32.5787010
  19.4964560  25.7784940  32.3626290  22.9923120  27.0685630  34.8753220
  22.6923260  27.2142810  33.9781040  23.7634360  26.5090920  34.7826610
  28.3351570  31.8654630  32.8708350  28.3496110  30.9335590  32.6527260
  27.6276670  31.9514390  33.5098120  33.4688640  26.0494450  19.1406960
  33.3852360  26.4808670  18.2903400  34.1882830  26.5092800  19.5733780
  34.5462780  28.5061970  32.2176930  33.8210970  29.0990750  32.0206320
  35.0738240  28.4985510  31.4190300  34.4975890  32.9036710  21.8689090
  33.8552050  32.2492330  22.1432810  34.1106550  33.3091800  21.0929760
  30.0762370  30.2322140  25.7160780  30.4286190  29.6350270  25.0562150
  29.1924700  29.9066370  25.8869030  26.1625650  30.9919830  23.1231190
  26.8496780  31.5389040  23.5038780  25.3758070  31.5360560  23.1580800
  18.3018050  26.6092650  18.6148270  19.1712900  26.8917450  18.8984190
  17.8108370  27.4228520  18.4997080  25.4652860  27.9965860  22.7356550
  25.9215640  28.8071110  22.9616740  25.1141070  27.6789000  23.5675040
  27.7685470  33.5072200  29.9648850  28.4127690  33.7131580  30.6422270
  28.1314910  32.7460600  29.5119700  21.3664640  18.3403510  23.2079070
  21.2379270  18.3321410  24.1563990  20.5426660  18.6786600  22.8570080
  29.0417550  31.5104550  28.6826300  29.6839780  30.8097710  28.7958470
  29.5666900  32.2902990  28.5023190  32.8873270  31.7953170  18.4065440
  32.6610850  31.0783610  18.9990080  32.4969470  31.5465610  17.5687190
  30.8155170  32.3099450  31.8862360  31.1511410  32.8966140  32.5640280
  29.8955510  32.1792160  32.1160150  18.6689300  35.8220030  19.1809900
  19.0286940  36.4209370  18.5267170  18.5281640  36.3679920  19.9544930
  18.3658570  20.0994630  32.6685770  17.6517090  20.2991550  33.2738380
  18.7853610  19.3234200  33.0400570  32.4689520  29.7125110  20.0679600
  32.1811220  30.1737800  20.8557480  33.2641690  29.2522880  20.3363820
  18.6531160  34.0874890  33.6552300  18.7622280  33.1469630  33.5147690
  18.0011720  34.3529640  33.0066030  26.6443750  32.3590780  35.0550420
  26.3240620  31.6400020  35.5996110  25.9702110  33.0345850  35.1286480
  24.6857920  33.2051230  19.9983570  24.6768020  33.9380920  19.3828080
  23.7656280  32.9582810  20.0910530  20.2864560  28.4266120  20.7430330
  19.6792510  29.1665020  20.7525630  20.7613910  28.5165480  19.9168530
  29.8597350  22.5916940  30.4187220  30.2278170  21.7712150  30.7466790
  28.9995550  22.6518830  30.8342870  33.2259380  21.5473880  21.2274780
  32.5972540  21.6519550  20.5133010  32.7311300  21.7670660  22.0168660
  27.6717520  33.2679470  18.6608760  27.7729500  33.0643460  17.7310740
  26.7719260  33.0137750  18.8656540  25.1943410  23.8259830  22.6432660
  24.4859560  24.2946170  23.0846270  25.4787890  23.1681840  23.2777850
  26.8199340  25.2456530  30.6425190  27.3184590  25.7202350  31.3077040
  26.9622290  24.3220050  30.8495220  29.2258840  20.5510490  24.0828450
  29.1026620  20.5696620  23.1337960  30.1743400  20.5989430  24.2026850
  26.3135630  35.7865790  23.3556430  26.5677130  35.7487180  22.4335800
  25.3648110  35.6599120  23.3484680  23.3978430  22.1344910  20.0183370
  24.2468960  22.5715060  19.9523560  23.0309700  22.4465170  20.8455430
  34.0266200  21.4624490  31.4853580  33.5239800  22.2029890  31.8247390
  34.8422860  21.8508490  31.1690370  32.3188210  26.7057670  24.9314940
  31.3778350  26.7207900  25.1062630  32.6332280  25.9193630  25.3775240
  22.2969850  28.3877270  18.4918900  23.0633120  28.2758630  19.0544330
  22.3744540  27.6915240  17.8395670  20.9916610  25.8202340  19.1751790
  21.0720200  24.8729850  19.2869190  21.8836360  26.1509220  19.2812450
  34.3213790  33.8766520  26.6069200  34.4461210  34.6997690  27.0793010
  35.1879350  33.6657250  26.2593350  21.7931320  35.9697730  26.2786330
  22.5293800  35.4213190  26.5494900  22.1772240  36.8353740  26.1392320
  18.6776800  32.0371300  22.1527840  17.7516580  32.2792440  22.1433250
  19.1433230  32.8645560  22.0312590  20.7989600  35.1543800  35.4671910
  21.6002330  35.4755850  35.8807310  20.2841420  34.7939380  36.1891820
  24.9033630  35.1428040  18.1011900  25.6962240  35.4316870  17.6493690
  24.3837980  34.7120210  17.4224380  29.6354230  31.2623670  35.4147320
  29.0292390  31.2855270  34.6743070  29.3308340  30.5306710  35.9514570
  31.0654600  34.9903960  34.0256730  32.0176350  34.9061980  33.9756970
  30.9182820  35.6545670  34.6990520  33.9563800  34.3698170  19.5248640
  33.6705310  33.9563310  18.7102820  33.7583350  35.2985880  19.4049160
  18.5187410  27.6417260  34.4107960  19.0226430  27.0624540  34.9824190
  17.7794830  27.9257490  34.9484330  25.4211030  30.3631450  17.9654250
  25.3161670  29.7483800  18.6915630  25.2535250  29.8397340  17.1817260
  25.5725350  29.0488250  33.9443480  24.8071020  29.6173250  33.8598150
  25.7541310  28.7564460  33.0511710  28.6613760  29.4251480  18.5696240
  28.1123860  29.8720780  19.2138980  29.2833020  28.9200730  19.0933910
  32.7148700  30.7793580  34.5018500  33.4558170  31.1169340  33.9985960
  31.9521380  30.9485640  33.9488270  20.5510490  25.7846850  35.3058030
  20.5915830  25.4860720  36.2143260  21.4055990  26.1854460  35.1465550
  24.3288880  28.3842400  20.4661540  24.7505300  28.2182270  21.3092930
  24.4539720  27.5742630  19.9716680  22.4916300  24.3638950  33.2732520
  21.9612760  23.8729900  32.6455860  23.1604370  24.7923150  32.7390450
  26.8416520  27.4080010  17.7138640  27.3622180  26.6929030  17.3479790
  27.4884920  28.0465880  18.0139150  31.3894360  28.8308410  33.0373710
  31.8035380  28.9853490  33.8864130  30.4545360  28.9563630  33.1999490
  31.8616530  26.1704570  35.0412860  32.4437300  25.4156890  34.9533340
  32.0378300  26.7012010  34.2644340  22.9788600  21.3301320  33.3529810
  22.8845470  20.7122070  32.6280680  22.3985990  22.0567610  33.1259720
  25.7450040  19.8874560  30.3857200  25.2967340  19.9098820  29.5402750
  25.1115240  19.4893580  30.9827500  26.1509590  28.7828890  31.0069640
  26.5697700  29.6261620  30.8345880  25.2318220  28.9200930  30.7776420
  28.4873490  26.5145070  32.3907480  28.6069700  25.9186210  33.1302320
  29.3467490  26.5514760  31.9708780  30.8261390  27.0682260  30.9669990
  30.2996610  27.5924880  30.3635130  31.1692730  27.7009650  31.5979720
  23.2247780  24.4575630  17.4119700  23.0236840  23.5942990  17.7733040
  23.0539830  24.3708990  16.4741300  24.0017010  35.0881900  32.1227370
  23.4638100  35.8127960  31.8036070  24.2550970  34.6112240  31.3324710
  25.2542260  23.0566420  33.6483300  25.8441950  22.7482270  34.3361120
  24.4362500  22.5846170  33.8043200  30.0735690  22.6732230  33.8816320
  29.3851210  22.0113770  33.8166310  30.7941710  22.2270500  34.3264780
  30.7036090  19.2683860  19.9406580  30.9838380  18.4251760  20.2966000
  29.9301820  19.5006970  20.4545330  22.0230580  21.5576250  17.3997580
  22.3256480  21.5643680  16.4916730  22.7625170  21.2074110  17.8965240
  26.8579220  36.3233110  32.3814020  26.7837920  37.2268250  32.6886390
  25.9558060  36.0045010  32.3536090  25.2415510  20.5010870  18.3853780
  24.8937510  19.8234860  17.8056230  25.4428280  20.0400380  19.1997170
  27.4064550  35.4891620  20.0040380  28.3015340  35.8276590  20.0259140
  27.4382180  34.7671030  19.3764660  21.0460710  30.8618670  18.2327380
  21.4835580  31.4048340  18.8884960  21.5308440  30.0365620  18.2423720
  18.2606510  33.6507700  25.6847640  18.5909520  32.7828760  25.4526280
  18.6897510  33.8566220  26.5152600  22.8568430  31.9816710  23.3449610
  22.5563970  31.8581680  24.2453520  22.7505920  31.1225300  22.9365340
  18.7496720  34.5178290  28.4229270  18.3127710  34.6979090  29.2553420
  19.3174400  35.2752910  28.2810990  35.6260350  31.7613110  18.0476290
  34.7953310  31.8289760  18.5183520  35.8032180  32.6517230  17.7443150
  35.0816810  28.5060590  20.5510490  35.8435720  29.0757240  20.6570180
  35.0971180  27.9387790  21.3218800  18.5821150  27.0298520  24.7818150
  17.9269990  26.7610160  24.1377850  19.4199100  26.9203000  24.3320130
  36.0876780  29.3610690  25.3952420  36.4585610  28.5778010  24.9888390
  36.7278710  30.0499790  25.2169720  33.0710540  30.7447270  30.8082740
  32.2570380  31.1744430  31.0708530  33.4784740  31.3565680  30.1951790
  35.1335980  28.7994960  17.7083010  35.4084820  29.7073840  17.5802230
  34.9446720  28.7357490  18.6445000  31.5311590  21.8239810  19.0036640
  31.9496470  21.6370790  18.1633300  31.2247650  20.9718860  19.3139570
  35.0301320  26.7363950  22.7012440  34.6544920  25.9691880  22.2693730
  34.3004440  27.1186650  23.1887370  19.6197080  27.4151090  29.3221490
  19.9870120  27.3278490  30.2017510  19.0507900  26.6517640  29.2228350
  34.4200940  25.8835470  32.3351960  34.1887030  25.6548220  31.4349910
  34.6805490  26.8035020  32.2896850  19.1713080  24.3260180  33.2279910
  18.2769130  24.2926940  33.5673620  19.7110630  24.5246970  33.9931160
  32.8589010  21.1091900  35.1131660  33.7359190  21.1175300  35.4965660
  32.8709850  20.3722740  34.5024010  17.7959230  24.2397450  20.7243480
  16.8923310  24.5027650  20.5495140  18.2799850  24.5108620  19.9443440
  34.3052280  24.9621440  26.0019680  34.8289760  24.4684090  25.3709850
  34.8911700  25.0971800  26.7467250  34.4842000  25.0461310  29.5239230
  33.5344710  25.0124850  29.6384220  34.6655010  25.9561420  29.2889000
  20.3386440  23.2962990  18.6337860  21.0478140  22.8746210  18.1485140
  19.6226380  23.3638220  18.0021210  19.9860600  19.3502320  17.6740510
  20.7088730  19.8911260  17.9921730  20.2585120  19.0765740  16.7982050
  33.7952250  24.2194790  21.9412090  34.2911370  23.9865660  22.7260970
  33.5968320  23.3806630  21.5249730  19.6752790  18.6008510  27.5763130
  20.3228980  18.0505890  27.1358290  20.0954630  18.8551660  28.3978940
  35.2239410  22.8555740  24.4749770  35.1138690  22.7011780  25.4132040
  35.9847000  22.3276680  24.2325180  33.5705130  18.7949870  30.9332770
  34.2077350  19.4084010  31.2991960  33.7180020  18.8310530  29.9882000
  36.1129680  20.6863660  17.7155910  37.0378990  20.5544840  17.5074200
  36.0905470  20.7656480  18.6692360  36.1868170  21.4574320  20.3412620
  35.3919670  21.3919440  20.8705530  36.3911450  22.3924960  20.3297970
  33.1286590  35.4965870  24.3351010  33.7245660  35.1750440  23.6585430
  33.3864740  35.0237690  25.1264280  19.4284790  18.7564180  30.3188450
  19.0799610  19.2128000  31.0846630  19.0972490  17.8621310  30.4010880
  21.0349160  31.9283780  34.4841640  20.9918790  31.5576690  35.3656100
  21.1660170  32.8661350  34.6243460  24.7355190  33.4843370  30.0851360
  24.4946550  33.7517930  29.1981880  25.6757830  33.6549100  30.1402220
  26.9409610  19.9476060  33.8407870  26.8798500  20.5397890  34.5903280
  27.8809990  19.8402020  33.6958130  29.5784170  19.6046120  33.4800160
  30.1924580  19.9225410  32.8181240  30.1233730  19.1194710  34.0996020
  20.1005430  18.2840380  33.5939220  20.6488420  18.1028430  32.8305330
  20.1660740  17.4934490  34.1295530  20.8737190  34.8746030  31.6039420
  20.2797510  34.7430730  32.3429460  20.8661030  34.0384170  31.1381520
  30.3192210  18.1678260  29.8069450  29.4452050  18.5013370  29.6042380
  30.2102960  17.6951440  30.6321320  31.2264190  20.3749130  31.1911170
  30.8977550  19.5600890  30.8112900  32.1746490  20.3318940  31.0676860
  33.6798800  36.1461170  28.1648740  33.2201770  36.8976980  27.7906760
  33.0511260  35.4267640  28.1063540  20.5049420  32.2404410  30.5547460
  19.7783480  31.6209700  30.4873410  20.5658570  32.6345020  29.6845540
  24.1094520  34.4549410  27.3396870  24.6259540  33.8436770  26.8145130
  24.7591900  34.9578190  27.8307880  26.8490020  35.3457900  28.1665850
  27.1367830  35.0912200  27.2898860  27.3613240  34.7935260  28.7571420
  28.0667030  19.0848100  28.7462360  27.2838820  19.5593600  29.0259120
  27.7729960  18.1802930  28.6375540  32.6188100  19.7871200  26.7911450
  33.0596190  19.7316300  25.9433050  32.3495690  20.7029210  26.8621630
  34.4826670  19.4186440  24.8020270  34.4215070  18.4747660  24.6551290
  35.2618700  19.5266530  25.3473730  18.7879420  35.5578800  23.7644220
  18.6201460  34.9249480  24.4626110  17.9213930  35.7638200  23.4138410
  19.4107440  19.3895580  21.2676080  20.1686800  19.5024460  20.6940110
  18.9484610  20.2264780  21.2219510  25.9521250  21.5034850  24.2578390
  25.1395760  21.1291740  23.9174270  26.4562890  20.7479930  24.5599580
  30.4546230  18.1677300  25.4961460  31.0575600  18.7397510  25.9709980
  29.7139220  18.7316740  25.2735360  33.5980830  18.5698860  20.7701740
  33.7931460  19.4682310  21.0369170  32.8110700  18.3385940  21.2634690
  20.3942120  34.2512030  21.2094360  19.8689740  34.6320060  20.5056320
  20.3186700  34.8762800  21.9304070  21.7832590  19.9159630  19.8078050
  22.3125350  19.1289430  19.6786000  22.4160910  20.5950820  20.0413580
  23.9770430  19.6534770  22.8623440  23.3473170  18.9522080  23.0293570
  23.4375570  20.4138900  22.6456600  26.9162380  36.2674000  35.5334050
  27.8429690  36.0318270  35.5770010  26.9012810  37.0946000  35.0520080
  35.1507440  35.8099570  22.5308300  35.3259630  35.1237310  21.8869220
  34.4529010  36.3346620  22.1384970  24.1025990  18.9318750  35.2975930
  23.8210260  19.4352350  34.5336750  24.4845690  18.1340500  34.9318060
  22.9935090  36.1994410  20.0843610  23.7253910  35.9153690  19.5367500
  23.2528760  35.9607690  20.9742990  22.1549880  32.3159140  20.0889940
  21.5258760  32.7844240  20.6375770  22.2697710  31.4708360  20.5236130
  30.7041450  18.3472330  35.8756400  30.5906900  18.6666940  36.7707920
  31.5211190  18.7484840  35.5793680  29.6099600  26.3664800   6.2391140
  29.5293650  25.4519410   5.9682850  29.1964020  26.8631870   5.5330850
  27.7417640  28.1443820   8.1200410  26.9659740  27.6644260   8.4098980
  28.3930570  27.4649470   7.9456570  21.7583470  28.4563630   8.9976170
  20.9268350  28.2012340   9.3972680  22.3664450  28.5274400   9.7334090
  31.7625070  32.5504010   6.8999540  31.3006600  31.7791250   7.2286710
  32.5750620  32.5770080   7.4051990  21.7384730  32.4903720   9.1934190
  22.0412770  31.6001460   9.0144410  22.4828320  33.0473940   8.9656440
  20.1675420  23.4165520   2.7818560  19.2792120  23.7581490   2.6798440
  20.4516610  23.2165840   1.8899390  18.1308430  26.0171170   8.6658260
  18.7024540  25.2493370   8.6661900  18.1309970  26.3159930   7.7564870
  27.9888380  34.8362020   6.5203530  27.3699820  35.2919520   5.9497970
  28.8440160  34.9913480   6.1193230  27.1826630  30.8201010   8.1270570
  27.1134910  29.8790950   7.9659700  27.9446490  30.9102420   8.6993140
  19.3733300  21.4255530  10.4527190  19.1936140  20.5281280  10.7329950
  18.9713380  21.9727400  11.1274140  28.2131800  23.6271390   8.3539500
  28.5896620  22.7543270   8.2413170  28.1151310  23.9630090   7.4629940
  22.3436810  21.9997020   3.8156940  22.4503560  22.9000750   4.1225700
  21.4329170  21.9514990   3.5251590  31.9955920  21.1221830   5.2867840
  32.8165540  20.6318400   5.3293320  32.0290000  21.7119490   6.0399680
  19.9919970  23.9216030   9.0609530  20.6730080  24.1854400   9.6796930
  19.6768020  23.0816900   9.3947540  24.1844540  24.9683390   8.1482120
  24.6922760  25.4664360   8.7887140  24.7157780  24.1918590   7.9721480
  36.2855470  23.1388580  11.8511470  35.5807640  23.5270290  11.3326580
  36.5513390  23.8338870  12.4532400  22.4680640  19.6081950  12.4145540
  22.4699080  20.1254340  11.6091440  21.6384950  19.1312130  12.3915470
  28.8551730  29.7201260   3.9135440  28.2369000  30.1850710   3.3498160
  29.3674980  30.4128740   4.3304950  23.7183490  29.2477130  10.5919040
  23.3852870  29.8746050  11.2340110  23.8950170  29.7739010   9.8120710
  32.2317400  23.0622210   8.0595380  31.5272970  23.3507100   8.6398490
  32.5929560  23.8722320   7.6994940  22.1495970  21.3191910  10.4215990
  22.4912780  22.1633960  10.1269860  21.2111780  21.4675650  10.5381330
  22.9302590  31.2157930  12.4068220  23.5476590  31.8909010  12.1252670
  22.0695710  31.6245910  12.3155720  33.8480180  32.6797340  10.3222860
  33.1643700  33.3496450  10.3139530  34.3874470  32.8777990   9.5567720
  35.3004320  22.5077000   8.4504590  34.3529230  22.5415980   8.5820020
  35.6254310  23.3215950   8.8353950  25.8323860  18.8074180   6.7460580
  26.1398840  18.2521070   6.0296080  24.9024560  18.9418640   6.5633570
  31.3838920  34.5241470   9.0368040  31.3966080  34.1203760   8.1690300
  30.8314140  35.2988760   8.9329470  32.6784340  31.2457690   4.1258210
  32.5680670  30.3032020   4.2507630  32.6752590  31.6073330   5.0120970
  30.7824360  29.4271310  10.3650650  31.1993150  29.2131420   9.5304110
  31.5064180  29.6844100  10.9359270  28.2204620  26.8723010   3.4820700
  27.2933900  26.8060390   3.7109170  28.3729440  27.8103140   3.3675940
  34.7286460  27.8258530  10.4566890  33.9005090  27.8951620   9.9817020
  35.3236940  28.4112840   9.9882720  32.2501910  28.4343310   3.9855950
  31.6314330  28.0962860   3.3382250  32.2326360  27.7903070   4.6935140
  31.6928470  24.6127850  11.4021760  31.2799650  25.4381560  11.6561750
  30.9604420  24.0272890  11.2098120  23.8261260  27.3987750   6.2640430
  23.4218260  26.6865000   5.7686330  23.9124380  27.0540990   7.1528470
  24.2942960  31.0855310   8.4279640  23.9971250  30.4800780   7.7487420
  25.2442780  31.1232620   8.3169000  22.5389880  24.1730960  10.0439470
  23.0904470  24.2826300   9.2692720  23.0533390  24.5468560  10.7594700
  32.3828570  34.6587180  12.0902740  31.9059130  35.4659370  11.8975350
  31.6990360  34.0065510  12.2428950  23.3861390  30.8237000  15.0787440
  22.4889920  31.0476970  15.3260840  23.4114260  30.9471940  14.1298840
  22.2132610  27.6950320  13.6544810  22.0740380  28.5673120  14.0232210
  21.3313970  27.3523130  13.5092750  28.5361990  32.6126190   4.9609940
  28.9757900  33.3550520   4.5465330  28.4748880  32.8552760   5.8848900
  24.0112960  33.6372020  15.8629960  23.9828390  34.0414970  14.9958390
  23.8477930  32.7082380  15.7001560  20.5265890  26.2932730   3.7647080
  20.4063490  27.0194820   3.1528350  20.2166780  25.5235640   3.2874990
  35.9627780  34.4199120  17.1594130  36.4387500  34.8982010  17.8383210
  36.5834940  34.3516610  16.4339630  18.1651260  29.4647870   9.5715720
  18.2431680  29.5996640   8.6271440  18.7792940  28.7563760   9.7643840
  19.4098890  31.1648060   5.9821900  19.0026970  31.3062650   5.1275500
  20.3011900  30.8808220   5.7793110  35.3661030  31.6111970  14.3194140
  35.4924090  31.3723850  13.4011320  35.4082410  30.7796510  14.7916220
  29.2277770  35.3139970  12.8888950  29.7422440  35.2247980  13.6911380
  28.3846850  35.6599670  13.1816860  31.2032170  35.5995310   2.3172950
  31.0433310  35.3098250   3.2154780  31.0378880  34.8235440   1.7818180
  23.6820550  35.3793840   4.0944570  23.5063030  34.4629380   3.8812370
  22.8276290  35.7381130   4.3342370  30.4708230  34.7345580   4.9519440
  30.9265180  33.9534960   5.2658060  30.8100750  35.4452400   5.4960620
  35.2185040  23.6644430  15.2843880  34.6029310  24.1724100  14.7559340
  34.8981460  22.7642760  15.2269820  18.2210780  30.5062040  12.1110180
  18.3841820  30.0367400  11.2929550  18.6863230  29.9985600  12.7759020
  22.9929550  19.6367800   7.1470750  22.5497700  20.4177340   6.8155270
  23.5514540  19.9597690   7.8541690  27.2799360  22.5036320  12.7506070
  26.8178730  22.7119340  13.5626010  26.8777470  21.6895670  12.4476740
  32.2803870  23.7245270  13.8802730  31.4297460  23.4251020  14.2011800
  32.1205660  23.9687280  12.9686550  29.3753580  25.2247020  15.9801520
  29.7006990  24.3910770  15.6403750  30.1633910  25.7475540  16.1279850
  25.0305450  20.1815130   9.0060350  25.3277780  21.0877960   8.9252370
  25.5791010  19.6933910   8.3919920  22.7843770  24.7601370   4.8752000
  22.5584690  24.5438540   5.7798620  22.0036300  25.1929830   4.5297970
  30.0141530  24.7664740   3.4742650  29.4150420  25.4900540   3.2906270
  30.5621140  24.7041520   2.6919100  25.2242980  25.6586950  15.5412270
  25.1286580  24.7181680  15.3912670  26.0674960  25.8802020  15.1460340
  28.6206400  23.4028280   5.5045930  29.0135970  23.7200480   4.6914620
  28.9823250  22.5240160   5.6190450  20.3553520  22.0700620  13.6946050
  19.9616910  22.9175830  13.9018830  19.6671920  21.4326990  13.8854690
  26.9298570  22.1535590  16.7642790  26.2396890  21.9607790  17.3988880
  27.6730870  22.4370230  17.2967090  17.6570570  19.9929080   7.7276130
  17.3683620  20.5631940   8.4401110  18.4016330  19.5133530   8.0907360
  29.2061540  25.9934030   9.5996710  28.4742660  26.5020840   9.9486810
  28.8085880  25.1764010   9.2985490  25.6438930  22.6688230   8.0049200
  25.6474990  22.2278180   7.1553740  26.5390050  22.9905560   8.1121020
  21.4941310  22.5514720   6.9643410  21.1541360  23.0289950   7.7210460
  20.7318630  22.0979840   6.6044510  29.6687450  21.4467710   9.0119650
  29.6860190  21.8976360   9.8561500  29.4203030  20.5473350   9.2253090
  33.0958200  18.8599890  14.8506030  33.4203970  18.1289550  15.3764010
  33.1314710  18.5413530  13.9487020  19.7949760  29.8813470  14.2705990
  19.4104550  29.2407140  14.8688950  20.1061950  30.5849590  14.8400720
  25.9446900  26.7290010   9.7514610  26.3117030  26.2548580  10.4975950
  25.7551960  27.6031580  10.0922950  18.8087390  21.4733700   5.8808080
  18.5234310  21.1089370   6.7186700  18.7466250  20.7414160   5.2671220
  23.7346270  25.7698650  12.0698820  23.4303340  26.6490630  12.2949180
  24.6892730  25.8298440  12.1056260  22.2628060  29.9759640   2.6665670
  21.4890320  29.4357260   2.5064390  22.9922690  29.4566250   2.3283430
  33.0216040  28.9725000   8.4592060  33.7415160  29.4680290   8.0688170
  32.8197860  28.2942890   7.8145930  28.4825980  20.3662960   2.6021450
  27.6690590  19.8676130   2.5266760  28.2887930  21.2061210   2.1857800
  28.4034840  29.0434060  14.3461060  28.3372150  28.1229730  14.0918650
  27.7739980  29.1409500  15.0605700  22.3065460  29.6440020   6.3044480
  22.8244130  28.8408280   6.2501370  21.8549480  29.5819160   7.1461310
  19.7910000  26.6101390  13.2170180  19.4324940  27.2755240  13.8043520
  19.4964560  25.7784940  13.5882800  22.9923120  27.0685630  16.1009730
  22.6923260  27.2142810  15.2037550  23.7634360  26.5090920  16.0083120
  28.3351570  31.8654630  14.0964860  28.3496110  30.9335590  13.8783770
  27.6276670  31.9514390  14.7354630  34.5462780  28.5061970  13.4433440
  33.8210970  29.0990750  13.2462830  35.0738240  28.4985510  12.6446810
  34.4975890  32.9036710   3.0945600  33.8552050  32.2492330   3.3689320
  34.1106550  33.3091800   2.3186270  30.0762370  30.2322140   6.9417290
  30.4286190  29.6350270   6.2818660  29.1924700  29.9066370   7.1125540
  26.1625650  30.9919830   4.3487700  26.8496780  31.5389040   4.7295290
  25.3758070  31.5360560   4.3837310  25.4652860  27.9965860   3.9613060
  25.9215640  28.8071110   4.1873250  25.1141070  27.6789000   4.7931550
  27.7685470  33.5072200  11.1905360  28.4127690  33.7131580  11.8678780
  28.1314910  32.7460600  10.7376210  21.3664640  18.3403510   4.4335580
  21.2379270  18.3321410   5.3820500  20.5426660  18.6786600   4.0826590
  29.0417550  31.5104550   9.9082810  29.6839780  30.8097710  10.0214980
  29.5666900  32.2902990   9.7279700  30.8155170  32.3099450  13.1118870
  31.1511410  32.8966140  13.7896790  29.8955510  32.1792160  13.3416660
  18.3658570  20.0994630  13.8942280  17.6517090  20.2991550  14.4994890
  18.7853610  19.3234200  14.2657080  18.6531160  34.0874890  14.8808810
  18.7622280  33.1469630  14.7404200  18.0011720  34.3529640  14.2322540
  26.6443750  32.3590780  16.2806930  26.3240620  31.6400020  16.8252620
  25.9702110  33.0345850  16.3542990  29.8597350  22.5916940  11.6443730
  30.2278170  21.7712150  11.9723300  28.9995550  22.6518830  12.0599380
  33.2259380  21.5473880   2.4531290  32.5972540  21.6519550   1.7389520
  32.7311300  21.7670660   3.2425170  25.1943410  23.8259830   3.8689170
  24.4859560  24.2946170   4.3102780  25.4787890  23.1681840   4.5034360
  26.8199340  25.2456530  11.8681700  27.3184590  25.7202350  12.5333550
  26.9622290  24.3220050  12.0751730  29.2258840  20.5510490   5.3084960
  29.1026620  20.5696620   4.3594470  30.1743400  20.5989430   5.4283360
  26.3135630  35.7865790   4.5812940  26.5677130  35.7487180   3.6592310
  25.3648110  35.6599120   4.5741190  34.0266200  21.4624490  12.7110090
  33.5239800  22.2029890  13.0503900  34.8422860  21.8508490  12.3946880
  32.3188210  26.7057670   6.1571450  31.3778350  26.7207900   6.3319140
  32.6332280  25.9193630   6.6031750  34.3213790  33.8766520   7.8325710
  34.4461210  34.6997690   8.3049520  35.1879350  33.6657250   7.4849860
  21.7931320  35.9697730   7.5042840  22.5293800  35.4213190   7.7751410
  22.1772240  36.8353740   7.3648830  18.6776800  32.0371300   3.3784350
  17.7516580  32.2792440   3.3689760  19.1433230  32.8645560   3.2569100
  20.7989600  35.1543800  16.6928420  21.6002330  35.4755850  17.1063820
  20.2841420  34.7939380  17.4148330  29.6354230  31.2623670  16.6403830
  29.0292390  31.2855270  15.8999580  29.3308340  30.5306710  17.1771080
  31.0654600  34.9903960  15.2513240  32.0176350  34.9061980  15.2013480
  30.9182820  35.6545670  15.9247030  18.5187410  27.6417260  15.6364470
  19.0226430  27.0624540  16.2080700  17.7794830  27.9257490  16.1740840
  25.5725350  29.0488250  15.1699990  24.8071020  29.6173250  15.0854660
  25.7541310  28.7564460  14.2768220  32.7148700  30.7793580  15.7275010
  33.4558170  31.1169340  15.2242470  31.9521380  30.9485640  15.1744780
  20.5510490  25.7846850  16.5314540  20.5915830  25.4860720  17.4399770
  21.4055990  26.1854460  16.3722060  22.4916300  24.3638950  14.4989030
  21.9612760  23.8729900  13.8712370  23.1604370  24.7923150  13.9646960
  31.3894360  28.8308410  14.2630220  31.8035380  28.9853490  15.1120640
  30.4545360  28.9563630  14.4256000  31.8616530  26.1704570  16.2669370
  32.4437300  25.4156890  16.1789850  32.0378300  26.7012010  15.4900850
  22.9788600  21.3301320  14.5786320  22.8845470  20.7122070  13.8537190
  22.3985990  22.0567610  14.3516230  25.7450040  19.8874560  11.6113710
  25.2967340  19.9098820  10.7659260  25.1115240  19.4893580  12.2084010
  26.1509590  28.7828890  12.2326150  26.5697700  29.6261620  12.0602390
  25.2318220  28.9200930  12.0032930  28.4873490  26.5145070  13.6163990
  28.6069700  25.9186210  14.3558830  29.3467490  26.5514760  13.1965290
  30.8261390  27.0682260  12.1926500  30.2996610  27.5924880  11.5891640
  31.1692730  27.7009650  12.8236230  24.0017010  35.0881900  13.3483880
  23.4638100  35.8127960  13.0292580  24.2550970  34.6112240  12.5581220
  25.2542260  23.0566420  14.8739810  25.8441950  22.7482270  15.5617630
  24.4362500  22.5846170  15.0299710  30.0735690  22.6732230  15.1072830
  29.3851210  22.0113770  15.0422820  30.7941710  22.2270500  15.5521290
  26.8579220  36.3233110  13.6070530  26.7837920  37.2268250  13.9142900
  25.9558060  36.0045010  13.5792600  18.2606510  33.6507700   6.9104150
  18.5909520  32.7828760   6.6782790  18.6897510  33.8566220   7.7409110
  22.8568430  31.9816710   4.5706120  22.5563970  31.8581680   5.4710030
  22.7505920  31.1225300   4.1621850  18.7496720  34.5178290   9.6485780
  18.3127710  34.6979090  10.4809930  19.3174400  35.2752910   9.5067500
  34.3858900  34.0195290  13.9363090  33.7860890  34.0787850  13.1927010
  34.5152800  33.0800270  14.0659940  35.0816810  28.5060590   1.7767000
  35.8435720  29.0757240   1.8826690  35.0971180  27.9387790   2.5475310
  18.5821150  27.0298520   6.0074660  17.9269990  26.7610160   5.3634360
  19.4199100  26.9203000   5.5576640  36.0876780  29.3610690   6.6208930
  36.4585610  28.5778010   6.2144900  36.7278710  30.0499790   6.4426230
  33.0710540  30.7447270  12.0339250  32.2570380  31.1744430  12.2965040
  33.4784740  31.3565680  11.4208300  35.0301320  26.7363950   3.9268950
  34.6544920  25.9691880   3.4950240  34.3004440  27.1186650   4.4143880
  19.6197080  27.4151090  10.5478000  19.9870120  27.3278490  11.4274020
  19.0507900  26.6517640  10.4484860  34.4200940  25.8835470  13.5608470
  34.1887030  25.6548220  12.6606420  34.6805490  26.8035020  13.5153360
  19.1713080  24.3260180  14.4536420  18.2769130  24.2926940  14.7930130
  19.7110630  24.5246970  15.2187670  32.8589010  21.1091900  16.3388170
  33.7359190  21.1175300  16.7222170  32.8709850  20.3722740  15.7280520
  34.3052280  24.9621440   7.2276190  34.8289760  24.4684090   6.5966360
  34.8911700  25.0971800   7.9723760  34.4842000  25.0461310  10.7495740
  33.5344710  25.0124850  10.8640730  34.6655010  25.9561420  10.5145510
  33.7952250  24.2194790   3.1668600  34.2911370  23.9865660   3.9517480
  33.5968320  23.3806630   2.7506240  19.6752790  18.6008510   8.8019640
  20.3228980  18.0505890   8.3614800  20.0954630  18.8551660   9.6235450
  35.2239410  22.8555740   5.7006280  35.1138690  22.7011780   6.6388550
  35.9847000  22.3276680   5.4581690  33.5705130  18.7949870  12.1589280
  34.2077350  19.4084010  12.5248470  33.7180020  18.8310530  11.2138510
  33.1286590  35.4965870   5.5607520  33.7245660  35.1750440   4.8841940
  33.3864740  35.0237690   6.3520790  19.4284790  18.7564180  11.5444960
  19.0799610  19.2128000  12.3103140  19.0972490  17.8621310  11.6267390
  21.0349160  31.9283780  15.7098150  20.9918790  31.5576690  16.5912610
  21.1660170  32.8661350  15.8499970  24.7355190  33.4843370  11.3107870
  24.4946550  33.7517930  10.4238390  25.6757830  33.6549100  11.3658730
  26.9409610  19.9476060  15.0664380  26.8798500  20.5397890  15.8159790
  27.8809990  19.8402020  14.9214640  29.5784170  19.6046120  14.7056670
  30.1924580  19.9225410  14.0437750  30.1233730  19.1194710  15.3252530
  35.9959350  35.5037750  12.1118510  35.5017630  35.9006620  11.3945640
  35.3872640  34.8786960  12.5055790  20.1005430  18.2840380  14.8195730
  20.6488420  18.1028430  14.0561840  20.1660740  17.4934490  15.3552040
  20.8737190  34.8746030  12.8295930  20.2797510  34.7430730  13.5685970
  20.8661030  34.0384170  12.3638030  30.3192210  18.1678260  11.0325960
  29.4452050  18.5013370  10.8298890  30.2102960  17.6951440  11.8577830
  31.2264190  20.3749130  12.4167680  30.8977550  19.5600890  12.0369410
  32.1746490  20.3318940  12.2933370  33.6798800  36.1461170   9.3905250
  33.2201770  36.8976980   9.0163270  33.0511260  35.4267640   9.3320050
  20.5049420  32.2404410  11.7803970  19.7783480  31.6209700  11.7129920
  20.5658570  32.6345020  10.9102050  24.1094520  34.4549410   8.5653380
  24.6259540  33.8436770   8.0401640  24.7591900  34.9578190   9.0564390
  26.8490020  35.3457900   9.3922360  27.1367830  35.0912200   8.5155370
  27.3613240  34.7935260   9.9827930  28.0667030  19.0848100   9.9718870
  27.2838820  19.5593600  10.2515630  27.7729960  18.1802930   9.8632050
  32.6188100  19.7871200   8.0167960  33.0596190  19.7316300   7.1689560
  32.3495690  20.7029210   8.0878140  34.4826670  19.4186440   6.0276780
  34.4215070  18.4747660   5.8807800  35.2618700  19.5266530   6.5730240
  18.7879420  35.5578800   4.9900730  18.6201460  34.9249480   5.6882620
  17.9213930  35.7638200   4.6394920  19.4107440  19.3895580   2.4932590
  20.1686800  19.5024460   1.9196620  18.9484610  20.2264780   2.4476020
  25.9521250  21.5034850   5.4834900  25.1395760  21.1291740   5.1430780
  26.4562890  20.7479930   5.7856090  30.4546230  18.1677300   6.7217970
  31.0575600  18.7397510   7.1966490  29.7139220  18.7316740   6.4991870
  33.5980830  18.5698860   1.9958250  33.7931460  19.4682310   2.2625680
  32.8110700  18.3385940   2.4891200  20.3942120  34.2512030   2.4350870
  19.8689740  34.6320060   1.7312830  20.3186700  34.8762800   3.1560580
  23.9770430  19.6534770   4.0879950  23.3473170  18.9522080   4.2550080
  23.4375570  20.4138900   3.8713110  26.9162380  36.2674000  16.7590560
  27.8429690  36.0318270  16.8026520  26.9012810  37.0946000  16.2776590
  35.1507440  35.8099570   3.7564810  35.3259630  35.1237310   3.1125730
  34.4529010  36.3346620   3.3641480  24.1025990  18.9318750  16.5232440
  23.8210260  19.4352350  15.7593260  24.4845690  18.1340500  16.1574570
  30.7041450  18.3472330  17.1012910  30.5906900  18.6666940  17.9964430
  31.5211190  18.7484840  16.8050190  33.4839940  35.4943860  16.5831600
  34.2765260  34.9993090  16.3757560  33.7773090  36.1734000  17.1907210
  29.6099600   7.5921310  62.5621610  29.5293650   6.6775920  62.2913320
  29.1964020   8.0888380  61.8561320  27.7417640   9.3700330  64.4430880
  26.9659740   8.8900770  64.7329450  28.3930570   8.6905980  64.2687040
  21.7583470   9.6820140  65.3206640  20.9268350   9.4268850  65.7203150
  22.3664450   9.7530910  66.0564560  31.7625070  13.7760520  63.2230010
  31.3006600  13.0047760  63.5517180  32.5750620  13.8026590  63.7282460
  21.7384730  13.7160230  65.5164660  22.0412770  12.8257970  65.3374880
  22.4828320  14.2730450  65.2886910  20.1675420   4.6422030  59.1049030
  19.2792120   4.9838000  59.0028910  20.4516610   4.4422350  58.2129860
  18.1308430   7.2427680  64.9888730  18.7024540   6.4749880  64.9892370
  18.1309970   7.5416440  64.0795340  27.9888380  16.0618530  62.8434000
  27.3699820  16.5176030  62.2728440  28.8440160  16.2169990  62.4423700
  27.1826630  12.0457520  64.4501040  27.1134910  11.1047460  64.2890170
  27.9446490  12.1358930  65.0223610  19.3733300   2.6512040  66.7757660
  19.1936140   1.7537790  67.0560420  18.9713380   3.1983910  67.4504610
  28.2131800   4.8527900  64.6769970  28.5896620   3.9799780  64.5643640
  28.1151310   5.1886600  63.7860410  22.3436810   3.2253530  60.1387410
  22.4503560   4.1257260  60.4456170  21.4329170   3.1771500  59.8482060
  31.9955920   2.3478340  61.6098310  32.8165540   1.8574910  61.6523790
  32.0290000   2.9376000  62.3630150  19.9919970   5.1472540  65.3840000
  20.6730080   5.4110910  66.0027400  19.6768020   4.3073410  65.7178010
  24.1844540   6.1939900  64.4712590  24.6922760   6.6920870  65.1117610
  24.7157780   5.4175100  64.2951950  36.2855470   4.3645090  68.1741940
  35.5807640   4.7526800  67.6557050  36.5513390   5.0595380  68.7762870
  28.8551730  10.9457770  60.2365910  28.2369000  11.4107220  59.6728630
  29.3674980  11.6385250  60.6535420  23.7183490  10.4733640  66.9149510
  23.3852870  11.1002560  67.5570580  23.8950170  10.9995520  66.1351180
  32.2317400   4.2878720  64.3825850  31.5272970   4.5763610  64.9628960
  32.5929560   5.0978830  64.0225410  22.1495970   2.5448420  66.7446460
  22.4912780   3.3890470  66.4500330  21.2111780   2.6932160  66.8611800
  22.9302590  12.4414440  68.7298690  23.5476590  13.1165520  68.4483140
  22.0695710  12.8502420  68.6386190  18.2234930  11.6314300  57.6105540
  17.8462910  12.1201400  56.8790440  18.4808000  12.3039580  58.2412070
  33.8480180  13.9053850  66.6453330  33.1643700  14.5752960  66.6370000
  34.3874470  14.1034500  65.8798190  35.3004320   3.7333510  64.7735060
  34.3529230   3.7672490  64.9050490  35.6254310   4.5472460  65.1584420
  31.3838920  15.7497980  65.3598510  31.3966080  15.3460270  64.4920770
  30.8314140  16.5245270  65.2559940  32.6784340  12.4714200  60.4488680
  32.5680670  11.5288530  60.5738100  32.6752590  12.8329840  61.3351440
  30.7824360  10.6527820  66.6881120  31.1993150  10.4387930  65.8534580
  31.5064180  10.9100610  67.2589740  28.2204620   8.0979520  59.8051170
  27.2933900   8.0316900  60.0339640  28.3729440   9.0359650  59.6906410
  28.2073700   4.3696520  56.8018330  27.2677370   4.5310480  56.8870790
  28.5256960   5.0882200  56.2554320  34.7286460   9.0515040  66.7797360
  33.9005090   9.1208130  66.3047490  35.3236940   9.6369350  66.3113190
  32.2501910   9.6599820  60.3086420  31.6314330   9.3219370  59.6612720
  32.2326360   9.0159580  61.0165610  31.6928470   5.8384360  67.7252230
  31.2799650   6.6638070  67.9792220  30.9604420   5.2529400  67.5328590
  23.8261260   8.6244260  62.5870900  23.4218260   7.9121510  62.0916800
  23.9124380   8.2797500  63.4758940  24.2942960  12.3111820  64.7510110
  23.9971250  11.7057290  64.0717890  25.2442780  12.3489130  64.6399470
  22.5389880   5.3987470  66.3669940  23.0904470   5.5082810  65.5923190
  23.0533390   5.7725070  67.0825170  32.3828570  15.8843690  68.4133210
  31.9059130  16.6915880  68.2205820  31.6990360  15.2322020  68.5659420
  30.4266610   8.8986630  57.3159170  30.8659890   8.0609060  57.1696990
  31.1395030   9.5316030  57.4023310  28.5361990  13.8382700  61.2840410
  28.9757900  14.5807030  60.8695800  28.4748880  14.0809270  62.2079370
  20.5265890   7.5189240  60.0877550  20.4063490   8.2451330  59.4758820
  20.2166780   6.7492150  59.6105460  18.1651260  10.6904380  65.8946190
  18.2431680  10.8253150  64.9501910  18.7792940   9.9820270  66.0874310
  19.4098890  12.3904570  62.3052370  19.0026970  12.5319160  61.4505970
  20.3011900  12.1064730  62.1023580  29.2277770  16.5396480  69.2119420
  29.7422440  16.4504490  70.0141850  28.3846850  16.8856180  69.5047330
  31.2032170  16.8251820  58.6403420  31.0433310  16.5354760  59.5385250
  31.0378880  16.0491950  58.1048650  23.6820550  16.6050350  60.4175040
  23.5063030  15.6885890  60.2042840  22.8276290  16.9637640  60.6572840
  30.9058300  14.3339380  57.2001420  30.2123460  14.3316670  56.5403700
  31.6481160  13.9098700  56.7695590  30.4708230  15.9602090  61.2749910
  30.9265180  15.1791470  61.5888530  30.8100750  16.6708910  61.8191090
  18.2210780  11.7318550  68.4340650  18.3841820  11.2623910  67.6160020
  18.6863230  11.2242110  69.0989490  27.2799360   3.7292830  69.0736540
  26.8178730   3.9375850  69.8856480  26.8777470   2.9152180  68.7707210
  22.7843770   5.9857880  61.1982470  22.5584690   5.7695050  62.1029090
  22.0036300   6.4186340  60.8528440  30.0141530   5.9921250  59.7973120
  29.4150420   6.7157050  59.6136740  30.5621140   5.9298030  59.0149570
  28.6206400   4.6284790  61.8276400  29.0135970   4.9456990  61.0145090
  28.9823250   3.7496670  61.9420920  20.3553520   3.2957130  70.0176520
  19.9616910   4.1432340  70.2249300  19.6671920   2.6583500  70.2085160
  17.8440800   5.1605710  55.2609320  17.7615470   6.1036470  55.4024310
  17.4923860   5.0180620  54.3821670  29.2061540   7.2190540  65.9227180
  28.4742660   7.7277350  66.2717280  28.8085880   6.4020520  65.6215960
  25.6438930   3.8944740  64.3279670  25.6474990   3.4534690  63.4784210
  26.5390050   4.2162070  64.4351490  21.4941310   3.7771230  63.2873880
  21.1541360   4.2546460  64.0440930  20.7318630   3.3236350  62.9274980
  25.7059080   4.8956820  57.3186430  25.8271900   4.8543300  58.2672250
  25.3207590   5.7580970  57.1633160  29.6687450   2.6724220  65.3350120
  29.6860190   3.1232870  66.1791970  29.4203030   1.7729860  65.5483560
  24.7180580   7.2057960  56.7169730  24.1497480   6.7576210  56.0905640
  25.4269580   7.5650740  56.1834880  25.9446900   7.9546520  66.0745080
  26.3117030   7.4805090  66.8206420  25.7551960   8.8288090  66.4153420
  18.8087390   2.6990210  62.2038550  18.5234310   2.3345880  63.0417170
  18.7466250   1.9670670  61.5901690  23.7346270   6.9955160  68.3929290
  23.4303340   7.8747140  68.6179650  24.6892730   7.0554950  68.4286730
  22.2628060  11.2016150  58.9896140  21.4890320  10.6613770  58.8294860
  22.9922690  10.6822760  58.6513900  33.0216040  10.1981510  64.7822530
  33.7415160  10.6936800  64.3918640  32.8197860   9.5199400  64.1376400
  31.1974370   5.9639120  57.2214080  32.0853990   6.2756350  57.0465420
  31.1679460   5.0911370  56.8294660  22.3065460  10.8696530  62.6274950
  22.8244130  10.0664790  62.5731840  21.8549480  10.8075670  63.4691780
  27.1934960  12.1362810  57.9002250  27.5350660  12.8805040  57.4045570
  26.3647670  12.4493930  58.2627080  19.7910000   7.8357900  69.5400650
  19.4324940   8.5011750  70.1273990  19.4964560   7.0041450  69.9113270
  33.4688640   7.2750960  56.6893940  33.3852360   7.7065180  55.8390380
  34.1882830   7.7349310  57.1220760  34.5462780   9.7318480  69.7663910
  33.8210970  10.3247260  69.5693300  35.0738240   9.7242020  68.9677280
  34.4975890  14.1293220  59.4176070  33.8552050  13.4748840  59.6919790
  34.1106550  14.5348310  58.6416740  30.0762370  11.4578650  63.2647760
  30.4286190  10.8606780  62.6049130  29.1924700  11.1322880  63.4356010
  26.1625650  12.2176340  60.6718170  26.8496780  12.7645550  61.0525760
  25.3758070  12.7617070  60.7067780  18.3018050   7.8349160  56.1635250
  19.1712900   8.1173960  56.4471170  17.8108370   8.6485030  56.0484060
  25.4652860   9.2222370  60.2843530  25.9215640  10.0327620  60.5103720
  25.1141070   8.9045510  61.1162020  27.7685470  14.7328710  67.5135830
  28.4127690  14.9388090  68.1909250  28.1314910  13.9717110  67.0606680
  29.0417550  12.7361060  66.2313280  29.6839780  12.0354220  66.3445450
  29.5666900  13.5159500  66.0510170  32.8873270  13.0209680  55.9552420
  32.6610850  12.3040120  56.5477060  32.4969470  12.7722120  55.1174170
  30.8155170  13.5355960  69.4349340  31.1511410  14.1222650  70.1127260
  29.8955510  13.4048670  69.6647130  18.6689300  17.0476540  56.7296880
  19.0286940  17.6465880  56.0754150  18.5281640  17.5936430  57.5031910
  32.4689520  10.9381620  57.6166580  32.1811220  11.3994310  58.4044460
  33.2641690  10.4779390  57.8850800  24.6857920  14.4307740  57.5470550
  24.6768020  15.1637430  56.9315060  23.7656280  14.1839320  57.6397510
  20.2864560   9.6522630  58.2917310  19.6792510  10.3921530  58.3012610
  20.7613910   9.7421990  57.4655510  29.8597350   3.8173450  67.9674200
  30.2278170   2.9968660  68.2953770  28.9995550   3.8775340  68.3829850
  33.2259380   2.7730390  58.7761760  32.5972540   2.8776060  58.0619990
  32.7311300   2.9927170  59.5655640  27.6717520  14.4935980  56.2095740
  27.7729500  14.2899970  55.2797720  26.7719260  14.2394260  56.4143520
  25.1943410   5.0516340  60.1919640  24.4859560   5.5202680  60.6333250
  25.4787890   4.3938350  60.8264830  26.8199340   6.4713040  68.1912170
  27.3184590   6.9458860  68.8564020  26.9622290   5.5476560  68.3982200
  29.2258840   1.7767000  61.6315430  29.1026620   1.7953130  60.6824940
  30.1743400   1.8245940  61.7513830  26.3135630  17.0122300  60.9043410
  26.5677130  16.9743690  59.9822780  25.3648110  16.8855630  60.8971660
  23.3978430   3.3601420  57.5670350  24.2468960   3.7971570  57.5010540
  23.0309700   3.6721680  58.3942410  34.0266200   2.6881000  69.0340560
  33.5239800   3.4286400  69.3734370  34.8422860   3.0765000  68.7177350
  32.3188210   7.9314180  62.4801920  31.3778350   7.9464410  62.6549610
  32.6332280   7.1450140  62.9262220  22.2969850   9.6133780  56.0405880
  23.0633120   9.5015140  56.6031310  22.3744540   8.9171750  55.3882650
  20.9916610   7.0458850  56.7238770  21.0720200   6.0986360  56.8356170
  21.8836360   7.3765730  56.8299430  34.3213790  15.1023030  64.1556180
  34.4461210  15.9254200  64.6279990  35.1879350  14.8913760  63.8080330
  21.7931320  17.1954240  63.8273310  22.5293800  16.6469700  64.0981880
  22.1772240  18.0610250  63.6879300  18.6776800  13.2627810  59.7014820
  17.7516580  13.5048950  59.6920230  19.1433230  14.0902070  59.5799570
  24.9033630  16.3684550  55.6498880  25.6962240  16.6573380  55.1980670
  24.3837980  15.9376720  54.9711360  33.9563800  15.5954680  57.0735620
  33.6705310  15.1819820  56.2589800  33.7583350  16.5242390  56.9536140
  25.4211030  11.5887960  55.5141230  25.3161670  10.9740310  56.2402610
  25.2535250  11.0653850  54.7304240  28.6613760  10.6507990  56.1183220
  28.1123860  11.0977290  56.7625960  29.2833020  10.1457240  56.6420890
  24.3288880   9.6098910  58.0148520  24.7505300   9.4438780  58.8579910
  24.4539720   8.7999140  57.5203660  26.8416520   8.6336520  55.2625620
  27.3622180   7.9185540  54.8966770  27.4884920   9.2722390  55.5626130
  26.1509590  10.0085400  68.5556620  26.5697700  10.8518130  68.3832860
  25.2318220  10.1457440  68.3263400  30.8261390   8.2938770  68.5156970
  30.2996610   8.8181390  67.9122110  31.1692730   8.9266160  69.1466700
  23.2247780   5.6832140  54.9606680  23.0236840   4.8199500  55.3220020
  23.0539830   5.5965500  54.0228280  24.0017010  16.3138410  69.6714350
  23.4638100  17.0384470  69.3523050  24.2550970  15.8368750  68.8811690
  22.0230580   2.7832760  54.9484560  22.3256480   2.7900190  54.0403710
  22.7625170   2.4330620  55.4452220  26.8579220  17.5489620  69.9301000
  26.7837920  18.4524760  70.2373370  25.9558060  17.2301520  69.9023070
  27.4064550  16.7148130  57.5527360  28.3015340  17.0533100  57.5746120
  27.4382180  15.9927540  56.9251640  21.0460710  12.0875180  55.7814360
  21.4835580  12.6304850  56.4371940  21.5308440  11.2622130  55.7910700
  18.2606510  14.8764210  63.2334620  18.5909520  14.0085270  63.0013260
  18.6897510  15.0822730  64.0639580  22.8568430  13.2073220  60.8936590
  22.5563970  13.0838190  61.7940500  22.7505920  12.3481810  60.4852320
  18.7496720  15.7434800  65.9716250  18.3127710  15.9235600  66.8040400
  19.3174400  16.5009420  65.8297970  35.6260350  12.9869620  55.5963270
  34.7953310  13.0546270  56.0670500  35.8032180  13.8773740  55.2930130
  35.0816810   9.7317100  58.0997470  35.8435720  10.3013750  58.2057160
  35.0971180   9.1644300  58.8705780  18.5821150   8.2555030  62.3305130
  17.9269990   7.9866670  61.6864830  19.4199100   8.1459510  61.8807110
  36.0876780  10.5867200  62.9439400  36.4585610   9.8034520  62.5375370
  36.7278710  11.2756300  62.7656700  33.0710540  11.9703780  68.3569720
  32.2570380  12.4000940  68.6195510  33.4784740  12.5822190  67.7438770
  35.1335980  10.0251470  55.2569990  35.4084820  10.9330350  55.1289210
  34.9446720   9.9614000  56.1931980  31.5311590   3.0496320  56.5523620
  31.9496470   2.8627300  55.7120280  31.2247650   2.1975370  56.8626550
  35.0301320   7.9620460  60.2499420  34.6544920   7.1948390  59.8180710
  34.3004440   8.3443160  60.7374350  19.6197080   8.6407600  66.8708470
  19.9870120   8.5535000  67.7504490  19.0507900   7.8774150  66.7715330
  34.4200940   7.1091980  69.8838940  34.1887030   6.8804730  68.9836890
  34.6805490   8.0291530  69.8383830  17.7959230   5.4653960  58.2730460
  16.8923310   5.7284160  58.0982120  18.2799850   5.7365130  57.4930420
  34.3052280   6.1877950  63.5506660  34.8289760   5.6940600  62.9196830
  34.8911700   6.3228310  64.2954230  34.4842000   6.2717820  67.0726210
  33.5344710   6.2381360  67.1871200  34.6655010   7.1817930  66.8375980
  20.3386440   4.5219500  56.1824840  21.0478140   4.1002720  55.6972120
  19.6226380   4.5894730  55.5508190  33.7952250   5.4451300  59.4899070
  34.2911370   5.2122170  60.2747950  33.5968320   4.6063140  59.0736710
  35.2239410   4.0812250  62.0236750  35.1138690   3.9268290  62.9619020
  35.9847000   3.5533190  61.7812160  36.1129680   1.9120170  55.2642890
  37.0378990   1.7801350  55.0561180  36.0905470   1.9912990  56.2179340
  36.1868170   2.6830830  57.8899600  35.3919670   2.6175950  58.4192510
  36.3911450   3.6181470  57.8784950  33.1286590  16.7222380  61.8837990
  33.7245660  16.4006950  61.2072410  33.3864740  16.2494200  62.6751260
  24.7355190  14.7099880  67.6338340  24.4946550  14.9774440  66.7468860
  25.6757830  14.8805610  67.6889200  35.9959350  16.7294260  68.4348980
  35.5017630  17.1263130  67.7176110  35.3872640  16.1043470  68.8286260
  20.8737190  16.1002540  69.1526400  20.2797510  15.9687240  69.8916440
  20.8661030  15.2640680  68.6868500  33.6798800  17.3717680  65.7135720
  33.2201770  18.1233490  65.3393740  33.0511260  16.6524150  65.6550520
  20.5049420  13.4660920  68.1034440  19.7783480  12.8466210  68.0360390
  20.5658570  13.8601530  67.2332520  24.1094520  15.6805920  64.8883850
  24.6259540  15.0693280  64.3632110  24.7591900  16.1834700  65.3794860
  26.8490020  16.5714410  65.7152830  27.1367830  16.3168710  64.8385840
  27.3613240  16.0191770  66.3058400  18.7879420  16.7835310  61.3131200
  18.6201460  16.1505990  62.0113090  17.9213930  16.9894710  60.9625390
  25.9521250   2.7291360  61.8065370  25.1395760   2.3548250  61.4661250
  26.4562890   1.9736440  62.1086560  20.3942120  15.4768540  58.7581340
  19.8689740  15.8576570  58.0543300  20.3186700  16.1019310  59.4791050
  35.1507440  17.0356080  60.0795280  35.3259630  16.3493820  59.4356200
  34.4529010  17.5603130  59.6871950  22.9935090  17.4250920  57.6330590
  23.7253910  17.1410200  57.0854480  23.2528760  17.1864200  58.5229970
  22.1549880  13.5415650  57.6376920  21.5258760  14.0100750  58.1862750
  22.2697710  12.6964870  58.0723110  29.6099600   7.5921310  43.7878120
  29.5293650   6.6775920  43.5169830  29.1964020   8.0888380  43.0817830
  27.7417640   9.3700330  45.6687390  26.9659740   8.8900770  45.9585960
  28.3930570   8.6905980  45.4943550  21.7583470   9.6820140  46.5463150
  20.9268350   9.4268850  46.9459660  22.3664450   9.7530910  47.2821070
  31.7625070  13.7760520  44.4486520  31.3006600  13.0047760  44.7773690
  32.5750620  13.8026590  44.9538970  21.7384730  13.7160230  46.7421170
  22.0412770  12.8257970  46.5631390  22.4828320  14.2730450  46.5143420
  20.1675420   4.6422030  40.3305540  19.2792120   4.9838000  40.2285420
  20.4516610   4.4422350  39.4386370  18.1308430   7.2427680  46.2145240
  18.7024540   6.4749880  46.2148880  18.1309970   7.5416440  45.3051850
  27.9888380  16.0618530  44.0690510  27.3699820  16.5176030  43.4984950
  28.8440160  16.2169990  43.6680210  27.1826630  12.0457520  45.6757550
  27.1134910  11.1047460  45.5146680  27.9446490  12.1358930  46.2480120
  19.3733300   2.6512040  48.0014170  19.1936140   1.7537790  48.2816930
  18.9713380   3.1983910  48.6761120  28.2131800   4.8527900  45.9026480
  28.5896620   3.9799780  45.7900150  28.1151310   5.1886600  45.0116920
  22.3436810   3.2253530  41.3643920  22.4503560   4.1257260  41.6712680
  21.4329170   3.1771500  41.0738570  31.9955920   2.3478340  42.8354820
  32.8165540   1.8574910  42.8780300  32.0290000   2.9376000  43.5886660
  19.9919970   5.1472540  46.6096510  20.6730080   5.4110910  47.2283910
  19.6768020   4.3073410  46.9434520  24.1844540   6.1939900  45.6969100
  24.6922760   6.6920870  46.3374120  24.7157780   5.4175100  45.5208460
  36.2855470   4.3645090  49.3998450  35.5807640   4.7526800  48.8813560
  36.5513390   5.0595380  50.0019380  28.8551730  10.9457770  41.4622420
  28.2369000  11.4107220  40.8985140  29.3674980  11.6385250  41.8791930
  23.7183490  10.4733640  48.1406020  23.3852870  11.1002560  48.7827090
  23.8950170  10.9995520  47.3607690  32.2317400   4.2878720  45.6082360
  31.5272970   4.5763610  46.1885470  32.5929560   5.0978830  45.2481920
  22.1495970   2.5448420  47.9702970  22.4912780   3.3890470  47.6756840
  21.2111780   2.6932160  48.0868310  22.9302590  12.4414440  49.9555200
  23.5476590  13.1165520  49.6739650  22.0695710  12.8502420  49.8642700
  18.2234930  11.6314300  38.8362050  17.8462910  12.1201400  38.1046950
  18.4808000  12.3039580  39.4668580  33.8480180  13.9053850  47.8709840
  33.1643700  14.5752960  47.8626510  34.3874470  14.1034500  47.1054700
  35.3004320   3.7333510  45.9991570  34.3529230   3.7672490  46.1307000
  35.6254310   4.5472460  46.3840930  31.3838920  15.7497980  46.5855020
  31.3966080  15.3460270  45.7177280  30.8314140  16.5245270  46.4816450
  32.6784340  12.4714200  41.6745190  32.5680670  11.5288530  41.7994610
  32.6752590  12.8329840  42.5607950  30.7824360  10.6527820  47.9137630
  31.1993150  10.4387930  47.0791090  31.5064180  10.9100610  48.4846250
  28.2204620   8.0979520  41.0307680  27.2933900   8.0316900  41.2596150
  28.3729440   9.0359650  40.9162920  28.2073700   4.3696520  38.0274840
  27.2677370   4.5310480  38.1127300  28.5256960   5.0882200  37.4810830
  34.7286460   9.0515040  48.0053870  33.9005090   9.1208130  47.5304000
  35.3236940   9.6369350  47.5369700  32.2501910   9.6599820  41.5342930
  31.6314330   9.3219370  40.8869230  32.2326360   9.0159580  42.2422120
  31.6928470   5.8384360  48.9508740  31.2799650   6.6638070  49.2048730
  30.9604420   5.2529400  48.7585100  23.8261260   8.6244260  43.8127410
  23.4218260   7.9121510  43.3173310  23.9124380   8.2797500  44.7015450
  24.2942960  12.3111820  45.9766620  23.9971250  11.7057290  45.2974400
  25.2442780  12.3489130  45.8655980  22.5389880   5.3987470  47.5926450
  23.0904470   5.5082810  46.8179700  23.0533390   5.7725070  48.3081680
  32.3828570  15.8843690  49.6389720  31.9059130  16.6915880  49.4462330
  31.6990360  15.2322020  49.7915930  23.3861390  12.0493510  52.6274420
  22.4889920  12.2733480  52.8747820  23.4114260  12.1728450  51.6785820
  30.4266610   8.8986630  38.5415680  30.8659890   8.0609060  38.3953500
  31.1395030   9.5316030  38.6279820  22.2132610   8.9206830  51.2031790
  22.0740380   9.7929630  51.5719190  21.3313970   8.5779640  51.0579730
  28.5361990  13.8382700  42.5096920  28.9757900  14.5807030  42.0952310
  28.4748880  14.0809270  43.4335880  24.0112960  14.8628530  53.4116940
  23.9828390  15.2671480  52.5445370  23.8477930  13.9338890  53.2488540
  20.5265890   7.5189240  41.3134060  20.4063490   8.2451330  40.7015330
  20.2166780   6.7492150  40.8361970  35.9627780  15.6455630  54.7081110
  36.4387500  16.1238520  55.3870190  36.5834940  15.5773120  53.9826610
  18.1651260  10.6904380  47.1202700  18.2431680  10.8253150  46.1758420
  18.7792940   9.9820270  47.3130820  19.4098890  12.3904570  43.5308880
  19.0026970  12.5319160  42.6762480  20.3011900  12.1064730  43.3280090
  35.3661030  12.8368480  51.8681120  35.4924090  12.5980360  50.9498300
  35.4082410  12.0053020  52.3403200  29.2277770  16.5396480  50.4375930
  29.7422440  16.4504490  51.2398360  28.3846850  16.8856180  50.7303840
  31.2032170  16.8251820  39.8659930  31.0433310  16.5354760  40.7641760
  31.0378880  16.0491950  39.3305160  23.6820550  16.6050350  41.6431550
  23.5063030  15.6885890  41.4299350  22.8276290  16.9637640  41.8829350
  30.9058300  14.3339380  38.4257930  30.2123460  14.3316670  37.7660210
  31.6481160  13.9098700  37.9952100  30.4708230  15.9602090  42.5006420
  30.9265180  15.1791470  42.8145040  30.8100750  16.6708910  43.0447600
  35.2185040   4.8900940  52.8330860  34.6029310   5.3980610  52.3046320
  34.8981460   3.9899270  52.7756800  18.2210780  11.7318550  49.6597160
  18.3841820  11.2623910  48.8416530  18.6863230  11.2242110  50.3246000
  27.2799360   3.7292830  50.2993050  26.8178730   3.9375850  51.1112990
  26.8777470   2.9152180  49.9963720  32.2803870   4.9501780  51.4289710
  31.4297460   4.6507530  51.7498780  32.1205660   5.1943790  50.5173530
  29.3753580   6.4503530  53.5288500  29.7006990   5.6167280  53.1890730
  30.1633910   6.9732050  53.6766830  22.7843770   5.9857880  42.4238980
  22.5584690   5.7695050  43.3285600  22.0036300   6.4186340  42.0784950
  30.0141530   5.9921250  41.0229630  29.4150420   6.7157050  40.8393250
  30.5621140   5.9298030  40.2406080  25.2242980   6.8843460  53.0899250
  25.1286580   5.9438190  52.9399650  26.0674960   7.1058530  52.6947320
  28.6206400   4.6284790  43.0532910  29.0135970   4.9456990  42.2401600
  28.9823250   3.7496670  43.1677430  20.3553520   3.2957130  51.2433030
  19.9616910   4.1432340  51.4505810  19.6671920   2.6583500  51.4341670
  26.9298570   3.3792100  54.3129770  26.2396890   3.1864300  54.9475860
  27.6730870   3.6626740  54.8454070  17.8440800   5.1605710  36.4865830
  17.7615470   6.1036470  36.6280820  17.4923860   5.0180620  35.6078180
  29.2061540   7.2190540  47.1483690  28.4742660   7.7277350  47.4973790
  28.8085880   6.4020520  46.8472470  25.6438930   3.8944740  45.5536180
  25.6474990   3.4534690  44.7040720  26.5390050   4.2162070  45.6608000
  21.4941310   3.7771230  44.5130390  21.1541360   4.2546460  45.2697440
  20.7318630   3.3236350  44.1531490  25.7059080   4.8956820  38.5442940
  25.8271900   4.8543300  39.4928760  25.3207590   5.7580970  38.3889670
  29.6687450   2.6724220  46.5606630  29.6860190   3.1232870  47.4048480
  29.4203030   1.7729860  46.7740070  24.7180580   7.2057960  37.9426240
  24.1497480   6.7576210  37.3162150  25.4269580   7.5650740  37.4091390
  19.7949760  11.1069980  51.8192970  19.4104550  10.4663650  52.4175930
  20.1061950  11.8106100  52.3887700  25.9446900   7.9546520  47.3001590
  26.3117030   7.4805090  48.0462930  25.7551960   8.8288090  47.6409930
  18.8087390   2.6990210  43.4295060  18.5234310   2.3345880  44.2673680
  18.7466250   1.9670670  42.8158200  23.7346270   6.9955160  49.6185800
  23.4303340   7.8747140  49.8436160  24.6892730   7.0554950  49.6543240
  22.2628060  11.2016150  40.2152650  21.4890320  10.6613770  40.0551370
  22.9922690  10.6822760  39.8770410  33.0216040  10.1981510  46.0079040
  33.7415160  10.6936800  45.6175150  32.8197860   9.5199400  45.3632910
  28.4034840  10.2690570  51.8948040  28.3372150   9.3486240  51.6405630
  27.7739980  10.3666010  52.6092680  31.1974370   5.9639120  38.4470590
  32.0853990   6.2756350  38.2721930  31.1679460   5.0911370  38.0551170
  22.3065460  10.8696530  43.8531460  22.8244130  10.0664790  43.7988350
  21.8549480  10.8075670  44.6948290  27.1934960  12.1362810  39.1258760
  27.5350660  12.8805040  38.6302080  26.3647670  12.4493930  39.4883590
  19.7910000   7.8357900  50.7657160  19.4324940   8.5011750  51.3530500
  19.4964560   7.0041450  51.1369780  22.9923120   8.2942140  53.6496710
  22.6923260   8.4399320  52.7524530  23.7634360   7.7347430  53.5570100
  28.3351570  13.0911140  51.6451840  28.3496110  12.1592100  51.4270750
  27.6276670  13.1770900  52.2841610  33.4688640   7.2750960  37.9150450
  33.3852360   7.7065180  37.0646890  34.1882830   7.7349310  38.3477270
  34.5462780   9.7318480  50.9920420  33.8210970  10.3247260  50.7949810
  35.0738240   9.7242020  50.1933790  34.4975890  14.1293220  40.6432580
  33.8552050  13.4748840  40.9176300  34.1106550  14.5348310  39.8673250
  30.0762370  11.4578650  44.4904270  30.4286190  10.8606780  43.8305640
  29.1924700  11.1322880  44.6612520  26.1625650  12.2176340  41.8974680
  26.8496780  12.7645550  42.2782270  25.3758070  12.7617070  41.9324290
  18.3018050   7.8349160  37.3891760  19.1712900   8.1173960  37.6727680
  17.8108370   8.6485030  37.2740570  25.4652860   9.2222370  41.5100040
  25.9215640  10.0327620  41.7360230  25.1141070   8.9045510  42.3418530
  27.7685470  14.7328710  48.7392340  28.4127690  14.9388090  49.4165760
  28.1314910  13.9717110  48.2863190  29.0417550  12.7361060  47.4569790
  29.6839780  12.0354220  47.5701960  29.5666900  13.5159500  47.2766680
  32.8873270  13.0209680  37.1808930  32.6610850  12.3040120  37.7733570
  32.4969470  12.7722120  36.3430680  30.8155170  13.5355960  50.6605850
  31.1511410  14.1222650  51.3383770  29.8955510  13.4048670  50.8903640
  18.6689300  17.0476540  37.9553390  19.0286940  17.6465880  37.3010660
  18.5281640  17.5936430  38.7288420  32.4689520  10.9381620  38.8423090
  32.1811220  11.3994310  39.6300970  33.2641690  10.4779390  39.1107310
  18.6531160  15.3131400  52.4295790  18.7622280  14.3726140  52.2891180
  18.0011720  15.5786150  51.7809520  26.6443750  13.5847290  53.8293910
  26.3240620  12.8656530  54.3739600  25.9702110  14.2602360  53.9029970
  24.6857920  14.4307740  38.7727060  24.6768020  15.1637430  38.1571570
  23.7656280  14.1839320  38.8654020  20.2864560   9.6522630  39.5173820
  19.6792510  10.3921530  39.5269120  20.7613910   9.7421990  38.6912020
  29.8597350   3.8173450  49.1930710  30.2278170   2.9968660  49.5210280
  28.9995550   3.8775340  49.6086360  33.2259380   2.7730390  40.0018270
  32.5972540   2.8776060  39.2876500  32.7311300   2.9927170  40.7912150
  27.6717520  14.4935980  37.4352250  27.7729500  14.2899970  36.5054230
  26.7719260  14.2394260  37.6400030  25.1943410   5.0516340  41.4176150
  24.4859560   5.5202680  41.8589760  25.4787890   4.3938350  42.0521340
  26.8199340   6.4713040  49.4168680  27.3184590   6.9458860  50.0820530
  26.9622290   5.5476560  49.6238710  29.2258840   1.7767000  42.8571940
  29.1026620   1.7953130  41.9081450  30.1743400   1.8245940  42.9770340
  26.3135630  17.0122300  42.1299920  26.5677130  16.9743690  41.2079290
  25.3648110  16.8855630  42.1228170  23.3978430   3.3601420  38.7926860
  24.2468960   3.7971570  38.7267050  23.0309700   3.6721680  39.6198920
  34.0266200   2.6881000  50.2597070  33.5239800   3.4286400  50.5990880
  34.8422860   3.0765000  49.9433860  32.3188210   7.9314180  43.7058430
  31.3778350   7.9464410  43.8806120  32.6332280   7.1450140  44.1518730
  22.2969850   9.6133780  37.2662390  23.0633120   9.5015140  37.8287820
  22.3744540   8.9171750  36.6139160  20.9916610   7.0458850  37.9495280
  21.0720200   6.0986360  38.0612680  21.8836360   7.3765730  38.0555940
  34.3213790  15.1023030  45.3812690  34.4461210  15.9254200  45.8536500
  35.1879350  14.8913760  45.0336840  21.7931320  17.1954240  45.0529820
  22.5293800  16.6469700  45.3238390  22.1772240  18.0610250  44.9135810
  18.6776800  13.2627810  40.9271330  17.7516580  13.5048950  40.9176740
  19.1433230  14.0902070  40.8056080  20.7989600  16.3800310  54.2415400
  21.6002330  16.7012360  54.6550800  20.2841420  16.0195890  54.9635310
  24.9033630  16.3684550  36.8755390  25.6962240  16.6573380  36.4237180
  24.3837980  15.9376720  36.1967870  29.6354230  12.4880180  54.1890810
  29.0292390  12.5111780  53.4486560  29.3308340  11.7563220  54.7258060
  31.0654600  16.2160470  52.8000220  32.0176350  16.1318490  52.7500460
  30.9182820  16.8802180  53.4734010  33.9563800  15.5954680  38.2992130
  33.6705310  15.1819820  37.4846310  33.7583350  16.5242390  38.1792650
  18.5187410   8.8673770  53.1851450  19.0226430   8.2881050  53.7567680
  17.7794830   9.1514000  53.7227820  25.4211030  11.5887960  36.7397740
  25.3161670  10.9740310  37.4659120  25.2535250  11.0653850  35.9560750
  25.5725350  10.2744760  52.7186970  24.8071020  10.8429760  52.6341640
  25.7541310   9.9820970  51.8255200  28.6613760  10.6507990  37.3439730
  28.1123860  11.0977290  37.9882470  29.2833020  10.1457240  37.8677400
  32.7148700  12.0050090  53.2761990  33.4558170  12.3425850  52.7729450
  31.9521380  12.1742150  52.7231760  20.5510490   7.0103360  54.0801520
  20.5915830   6.7117230  54.9886750  21.4055990   7.4110970  53.9209040
  24.3288880   9.6098910  39.2405030  24.7505300   9.4438780  40.0836420
  24.4539720   8.7999140  38.7460170  22.4916300   5.5895460  52.0476010
  21.9612760   5.0986410  51.4199350  23.1604370   6.0179660  51.5133940
  26.8416520   8.6336520  36.4882130  27.3622180   7.9185540  36.1223280
  27.4884920   9.2722390  36.7882640  31.3894360  10.0564920  51.8117200
  31.8035380  10.2110000  52.6607620  30.4545360  10.1820140  51.9742980
  31.8616530   7.3961080  53.8156350  32.4437300   6.6413400  53.7276830
  32.0378300   7.9268520  53.0387830  22.9788600   2.5557830  52.1273300
  22.8845470   1.9378580  51.4024170  22.3985990   3.2824120  51.9003210
  26.1509590  10.0085400  49.7813130  26.5697700  10.8518130  49.6089370
  25.2318220  10.1457440  49.5519910  28.4873490   7.7401580  51.1650970
  28.6069700   7.1442720  51.9045810  29.3467490   7.7771270  50.7452270
  30.8261390   8.2938770  49.7413480  30.2996610   8.8181390  49.1378620
  31.1692730   8.9266160  50.3723210  23.2247780   5.6832140  36.1863190
  23.0236840   4.8199500  36.5476530  23.0539830   5.5965500  35.2484790
  24.0017010  16.3138410  50.8970860  23.4638100  17.0384470  50.5779560
  24.2550970  15.8368750  50.1068200  25.2542260   4.2822930  52.4226790
  25.8441950   3.9738780  53.1104610  24.4362500   3.8102680  52.5786690
  30.0735690   3.8988740  52.6559810  29.3851210   3.2370280  52.5909800
  30.7941710   3.4527010  53.1008270  22.0230580   2.7832760  36.1741070
  22.3256480   2.7900190  35.2660220  22.7625170   2.4330620  36.6708730
  26.8579220  17.5489620  51.1557510  26.7837920  18.4524760  51.4629880
  25.9558060  17.2301520  51.1279580  27.4064550  16.7148130  38.7783870
  28.3015340  17.0533100  38.8002630  27.4382180  15.9927540  38.1508150
  21.0460710  12.0875180  37.0070870  21.4835580  12.6304850  37.6628450
  21.5308440  11.2622130  37.0167210  18.2606510  14.8764210  44.4591130
  18.5909520  14.0085270  44.2269770  18.6897510  15.0822730  45.2896090
  22.8568430  13.2073220  42.1193100  22.5563970  13.0838190  43.0197010
  22.7505920  12.3481810  41.7108830  18.7496720  15.7434800  47.1972760
  18.3127710  15.9235600  48.0296910  19.3174400  16.5009420  47.0554480
  34.3858900  15.2451800  51.4850070  33.7860890  15.3044360  50.7413990
  34.5152800  14.3056780  51.6146920  35.6260350  12.9869620  36.8219780
  34.7953310  13.0546270  37.2927010  35.8032180  13.8773740  36.5186640
  35.0816810   9.7317100  39.3253980  35.8435720  10.3013750  39.4313670
  35.0971180   9.1644300  40.0962290  18.5821150   8.2555030  43.5561640
  17.9269990   7.9866670  42.9121340  19.4199100   8.1459510  43.1063620
  36.0876780  10.5867200  44.1695910  36.4585610   9.8034520  43.7631880
  36.7278710  11.2756300  43.9913210  33.0710540  11.9703780  49.5826230
  32.2570380  12.4000940  49.8452020  33.4784740  12.5822190  48.9695280
  35.1335980  10.0251470  36.4826500  35.4084820  10.9330350  36.3545720
  34.9446720   9.9614000  37.4188490  31.5311590   3.0496320  37.7780130
  31.9496470   2.8627300  36.9376790  31.2247650   2.1975370  38.0883060
  35.0301320   7.9620460  41.4755930  34.6544920   7.1948390  41.0437220
  34.3004440   8.3443160  41.9630860  19.6197080   8.6407600  48.0964980
  19.9870120   8.5535000  48.9761000  19.0507900   7.8774150  47.9971840
  34.4200940   7.1091980  51.1095450  34.1887030   6.8804730  50.2093400
  34.6805490   8.0291530  51.0640340  19.1713080   5.5516690  52.0023400
  18.2769130   5.5183450  52.3417110  19.7110630   5.7503480  52.7674650
  17.7959230   5.4653960  39.4986970  16.8923310   5.7284160  39.3238630
  18.2799850   5.7365130  38.7186930  34.3052280   6.1877950  44.7763170
  34.8289760   5.6940600  44.1453340  34.8911700   6.3228310  45.5210740
  34.4842000   6.2717820  48.2982720  33.5344710   6.2381360  48.4127710
  34.6655010   7.1817930  48.0632490  20.3386440   4.5219500  37.4081350
  21.0478140   4.1002720  36.9228630  19.6226380   4.5894730  36.7764700
  33.7952250   5.4451300  40.7155580  34.2911370   5.2122170  41.5004460
  33.5968320   4.6063140  40.2993220  35.2239410   4.0812250  43.2493260
  35.1138690   3.9268290  44.1875530  35.9847000   3.5533190  43.0068670
  36.1129680   1.9120170  36.4899400  37.0378990   1.7801350  36.2817690
  36.0905470   1.9912990  37.4435850  36.1868170   2.6830830  39.1156110
  35.3919670   2.6175950  39.6449020  36.3911450   3.6181470  39.1041460
  33.1286590  16.7222380  43.1094500  33.7245660  16.4006950  42.4328920
  33.3864740  16.2494200  43.9007770  21.0349160  13.1540290  53.2585130
  20.9918790  12.7833200  54.1399590  21.1660170  14.0917860  53.3986950
  24.7355190  14.7099880  48.8594850  24.4946550  14.9774440  47.9725370
  25.6757830  14.8805610  48.9145710  35.9959350  16.7294260  49.6605490
  35.5017630  17.1263130  48.9432620  35.3872640  16.1043470  50.0542770
  20.8737190  16.1002540  50.3782910  20.2797510  15.9687240  51.1172950
  20.8661030  15.2640680  49.9125010  33.6798800  17.3717680  46.9392230
  33.2201770  18.1233490  46.5650250  33.0511260  16.6524150  46.8807030
  20.5049420  13.4660920  49.3290950  19.7783480  12.8466210  49.2616900
  20.5658570  13.8601530  48.4589030  24.1094520  15.6805920  46.1140360
  24.6259540  15.0693280  45.5888620  24.7591900  16.1834700  46.6051370
  26.8490020  16.5714410  46.9409340  27.1367830  16.3168710  46.0642350
  27.3613240  16.0191770  47.5314910  18.7879420  16.7835310  42.5387710
  18.6201460  16.1505990  43.2369600  17.9213930  16.9894710  42.1881900
  25.9521250   2.7291360  43.0321880  25.1395760   2.3548250  42.6917760
  26.4562890   1.9736440  43.3343070  20.3942120  15.4768540  39.9837850
  19.8689740  15.8576570  39.2799810  20.3186700  16.1019310  40.7047560
  26.9162380  17.4930510  54.3077540  27.8429690  17.2574780  54.3513500
  26.9012810  18.3202510  53.8263570  35.1507440  17.0356080  41.3051790
  35.3259630  16.3493820  40.6612710  34.4529010  17.5603130  40.9128460
  22.9935090  17.4250920  38.8587100  23.7253910  17.1410200  38.3110990
  23.2528760  17.1864200  39.7486480  22.1549880  13.5415650  38.8633430
  21.5258760  14.0100750  39.4119260  22.2697710  12.6964870  39.2979620
  33.4839940  16.7200370  54.1318580  34.2765260  16.2249600  53.9244540
  33.7773090  17.3990510  54.7394190  29.6099600   7.5921310  25.0134630
  29.5293650   6.6775920  24.7426340  29.1964020   8.0888380  24.3074340
  27.7417640   9.3700330  26.8943900  26.9659740   8.8900770  27.1842470
  28.3930570   8.6905980  26.7200060  21.7583470   9.6820140  27.7719660
  20.9268350   9.4268850  28.1716170  22.3664450   9.7530910  28.5077580
  31.7625070  13.7760520  25.6743030  31.3006600  13.0047760  26.0030200
  32.5750620  13.8026590  26.1795480  21.7384730  13.7160230  27.9677680
  22.0412770  12.8257970  27.7887900  22.4828320  14.2730450  27.7399930
  20.1675420   4.6422030  21.5562050  19.2792120   4.9838000  21.4541930
  20.4516610   4.4422350  20.6642880  18.1308430   7.2427680  27.4401750
  18.7024540   6.4749880  27.4405390  18.1309970   7.5416440  26.5308360
  27.9888380  16.0618530  25.2947020  27.3699820  16.5176030  24.7241460
  28.8440160  16.2169990  24.8936720  27.1826630  12.0457520  26.9014060
  27.1134910  11.1047460  26.7403190  27.9446490  12.1358930  27.4736630
  19.3733300   2.6512040  29.2270680  19.1936140   1.7537790  29.5073440
  18.9713380   3.1983910  29.9017630  28.2131800   4.8527900  27.1282990
  28.5896620   3.9799780  27.0156660  28.1151310   5.1886600  26.2373430
  22.3436810   3.2253530  22.5900430  22.4503560   4.1257260  22.8969190
  21.4329170   3.1771500  22.2995080  31.9955920   2.3478340  24.0611330
  32.8165540   1.8574910  24.1036810  32.0290000   2.9376000  24.8143170
  19.9919970   5.1472540  27.8353020  20.6730080   5.4110910  28.4540420
  19.6768020   4.3073410  28.1691030  24.1844540   6.1939900  26.9225610
  24.6922760   6.6920870  27.5630630  24.7157780   5.4175100  26.7464970
  36.2855470   4.3645090  30.6254960  35.5807640   4.7526800  30.1070070
  36.5513390   5.0595380  31.2275890  28.8551730  10.9457770  22.6878930
  28.2369000  11.4107220  22.1241650  29.3674980  11.6385250  23.1048440
  23.7183490  10.4733640  29.3662530  23.3852870  11.1002560  30.0083600
  23.8950170  10.9995520  28.5864200  32.2317400   4.2878720  26.8338870
  31.5272970   4.5763610  27.4141980  32.5929560   5.0978830  26.4738430
  22.1495970   2.5448420  29.1959480  22.4912780   3.3890470  28.9013350
  21.2111780   2.6932160  29.3124820  22.9302590  12.4414440  31.1811710
  23.5476590  13.1165520  30.8996160  22.0695710  12.8502420  31.0899210
  18.2234930  11.6314300  20.0618560  17.8462910  12.1201400  19.3303460
  18.4808000  12.3039580  20.6925090  33.8480180  13.9053850  29.0966350
  33.1643700  14.5752960  29.0883020  34.3874470  14.1034500  28.3311210
  35.3004320   3.7333510  27.2248080  34.3529230   3.7672490  27.3563510
  35.6254310   4.5472460  27.6097440  31.3838920  15.7497980  27.8111530
  31.3966080  15.3460270  26.9433790  30.8314140  16.5245270  27.7072960
  32.6784340  12.4714200  22.9001700  32.5680670  11.5288530  23.0251120
  32.6752590  12.8329840  23.7864460  30.7824360  10.6527820  29.1394140
  31.1993150  10.4387930  28.3047600  31.5064180  10.9100610  29.7102760
  28.2204620   8.0979520  22.2564190  27.2933900   8.0316900  22.4852660
  28.3729440   9.0359650  22.1419430  28.2073700   4.3696520  19.2531350
  27.2677370   4.5310480  19.3383810  28.5256960   5.0882200  18.7067340
  34.7286460   9.0515040  29.2310380  33.9005090   9.1208130  28.7560510
  35.3236940   9.6369350  28.7626210  32.2501910   9.6599820  22.7599440
  31.6314330   9.3219370  22.1125740  32.2326360   9.0159580  23.4678630
  31.6928470   5.8384360  30.1765250  31.2799650   6.6638070  30.4305240
  30.9604420   5.2529400  29.9841610  23.8261260   8.6244260  25.0383920
  23.4218260   7.9121510  24.5429820  23.9124380   8.2797500  25.9271960
  24.2942960  12.3111820  27.2023130  23.9971250  11.7057290  26.5230910
  25.2442780  12.3489130  27.0912490  22.5389880   5.3987470  28.8182960
  23.0904470   5.5082810  28.0436210  23.0533390   5.7725070  29.5338190
  32.3828570  15.8843690  30.8646230  31.9059130  16.6915880  30.6718840
  31.6990360  15.2322020  31.0172440  23.3861390  12.0493510  33.8530930
  22.4889920  12.2733480  34.1004330  23.4114260  12.1728450  32.9042330
  30.4266610   8.8986630  19.7672190  30.8659890   8.0609060  19.6210010
  31.1395030   9.5316030  19.8536330  22.2132610   8.9206830  32.4288300
  22.0740380   9.7929630  32.7975700  21.3313970   8.5779640  32.2836240
  28.5361990  13.8382700  23.7353430  28.9757900  14.5807030  23.3208820
  28.4748880  14.0809270  24.6592390  24.0112960  14.8628530  34.6373450
  23.9828390  15.2671480  33.7701880  23.8477930  13.9338890  34.4745050
  20.5265890   7.5189240  22.5390570  20.4063490   8.2451330  21.9271840
  20.2166780   6.7492150  22.0618480  35.9627780  15.6455630  35.9337620
  36.4387500  16.1238520  36.6126700  36.5834940  15.5773120  35.2083120
  18.1651260  10.6904380  28.3459210  18.2431680  10.8253150  27.4014930
  18.7792940   9.9820270  28.5387330  19.4098890  12.3904570  24.7565390
  19.0026970  12.5319160  23.9018990  20.3011900  12.1064730  24.5536600
  35.3661030  12.8368480  33.0937630  35.4924090  12.5980360  32.1754810
  35.4082410  12.0053020  33.5659710  29.2277770  16.5396480  31.6632440
  29.7422440  16.4504490  32.4654870  28.3846850  16.8856180  31.9560350
  31.2032170  16.8251820  21.0916440  31.0433310  16.5354760  21.9898270
  31.0378880  16.0491950  20.5561670  23.6820550  16.6050350  22.8688060
  23.5063030  15.6885890  22.6555860  22.8276290  16.9637640  23.1085860
  30.9058300  14.3339380  19.6514440  30.2123460  14.3316670  18.9916720
  31.6481160  13.9098700  19.2208610  30.4708230  15.9602090  23.7262930
  30.9265180  15.1791470  24.0401550  30.8100750  16.6708910  24.2704110
  35.2185040   4.8900940  34.0587370  34.6029310   5.3980610  33.5302830
  34.8981460   3.9899270  34.0013310  18.2210780  11.7318550  30.8853670
  18.3841820  11.2623910  30.0673040  18.6863230  11.2242110  31.5502510
  27.2799360   3.7292830  31.5249560  26.8178730   3.9375850  32.3369500
  26.8777470   2.9152180  31.2220230  32.2803870   4.9501780  32.6546220
  31.4297460   4.6507530  32.9755290  32.1205660   5.1943790  31.7430040
  29.3753580   6.4503530  34.7545010  29.7006990   5.6167280  34.4147240
  30.1633910   6.9732050  34.9023340  22.7843770   5.9857880  23.6495490
  22.5584690   5.7695050  24.5542110  22.0036300   6.4186340  23.3041460
  30.0141530   5.9921250  22.2486140  29.4150420   6.7157050  22.0649760
  30.5621140   5.9298030  21.4662590  25.2242980   6.8843460  34.3155760
  25.1286580   5.9438190  34.1656160  26.0674960   7.1058530  33.9203830
  28.6206400   4.6284790  24.2789420  29.0135970   4.9456990  23.4658110
  28.9823250   3.7496670  24.3933940  20.3553520   3.2957130  32.4689540
  19.9616910   4.1432340  32.6762320  19.6671920   2.6583500  32.6598180
  26.9298570   3.3792100  35.5386280  26.2396890   3.1864300  36.1732370
  27.6730870   3.6626740  36.0710580  17.8440800   5.1605710  17.7122340
  17.7615470   6.1036470  17.8537330  17.4923860   5.0180620  16.8334690
  29.2061540   7.2190540  28.3740200  28.4742660   7.7277350  28.7230300
  28.8085880   6.4020520  28.0728980  25.6438930   3.8944740  26.7792690
  25.6474990   3.4534690  25.9297230  26.5390050   4.2162070  26.8864510
  21.4941310   3.7771230  25.7386900  21.1541360   4.2546460  26.4953950
  20.7318630   3.3236350  25.3788000  25.7059080   4.8956820  19.7699450
  25.8271900   4.8543300  20.7185270  25.3207590   5.7580970  19.6146180
  29.6687450   2.6724220  27.7863140  29.6860190   3.1232870  28.6304990
  29.4203030   1.7729860  27.9996580  24.7180580   7.2057960  19.1682750
  24.1497480   6.7576210  18.5418660  25.4269580   7.5650740  18.6347900
  19.7949760  11.1069980  33.0449480  19.4104550  10.4663650  33.6432440
  20.1061950  11.8106100  33.6144210  25.9446900   7.9546520  28.5258100
  26.3117030   7.4805090  29.2719440  25.7551960   8.8288090  28.8666440
  18.8087390   2.6990210  24.6551570  18.5234310   2.3345880  25.4930190
  18.7466250   1.9670670  24.0414710  23.7346270   6.9955160  30.8442310
  23.4303340   7.8747140  31.0692670  24.6892730   7.0554950  30.8799750
  22.2628060  11.2016150  21.4409160  21.4890320  10.6613770  21.2807880
  22.9922690  10.6822760  21.1026920  33.0216040  10.1981510  27.2335550
  33.7415160  10.6936800  26.8431660  32.8197860   9.5199400  26.5889420
  28.4034840  10.2690570  33.1204550  28.3372150   9.3486240  32.8662140
  27.7739980  10.3666010  33.8349190  31.1974370   5.9639120  19.6727100
  32.0853990   6.2756350  19.4978440  31.1679460   5.0911370  19.2807680
  22.3065460  10.8696530  25.0787970  22.8244130  10.0664790  25.0244860
  21.8549480  10.8075670  25.9204800  27.1934960  12.1362810  20.3515270
  27.5350660  12.8805040  19.8558590  26.3647670  12.4493930  20.7140100
  19.7910000   7.8357900  31.9913670  19.4324940   8.5011750  32.5787010
  19.4964560   7.0041450  32.3626290  22.9923120   8.2942140  34.8753220
  22.6923260   8.4399320  33.9781040  23.7634360   7.7347430  34.7826610
  28.3351570  13.0911140  32.8708350  28.3496110  12.1592100  32.6527260
  27.6276670  13.1770900  33.5098120  33.4688640   7.2750960  19.1406960
  33.3852360   7.7065180  18.2903400  34.1882830   7.7349310  19.5733780
  34.5462780   9.7318480  32.2176930  33.8210970  10.3247260  32.0206320
  35.0738240   9.7242020  31.4190300  34.4975890  14.1293220  21.8689090
  33.8552050  13.4748840  22.1432810  34.1106550  14.5348310  21.0929760
  30.0762370  11.4578650  25.7160780  30.4286190  10.8606780  25.0562150
  29.1924700  11.1322880  25.8869030  26.1625650  12.2176340  23.1231190
  26.8496780  12.7645550  23.5038780  25.3758070  12.7617070  23.1580800
  18.3018050   7.8349160  18.6148270  19.1712900   8.1173960  18.8984190
  17.8108370   8.6485030  18.4997080  25.4652860   9.2222370  22.7356550
  25.9215640  10.0327620  22.9616740  25.1141070   8.9045510  23.5675040
  27.7685470  14.7328710  29.9648850  28.4127690  14.9388090  30.6422270
  28.1314910  13.9717110  29.5119700  29.0417550  12.7361060  28.6826300
  29.6839780  12.0354220  28.7958470  29.5666900  13.5159500  28.5023190
  32.8873270  13.0209680  18.4065440  32.6610850  12.3040120  18.9990080
  32.4969470  12.7722120  17.5687190  30.8155170  13.5355960  31.8862360
  31.1511410  14.1222650  32.5640280  29.8955510  13.4048670  32.1160150
  18.6689300  17.0476540  19.1809900  19.0286940  17.6465880  18.5267170
  18.5281640  17.5936430  19.9544930  32.4689520  10.9381620  20.0679600
  32.1811220  11.3994310  20.8557480  33.2641690  10.4779390  20.3363820
  18.6531160  15.3131400  33.6552300  18.7622280  14.3726140  33.5147690
  18.0011720  15.5786150  33.0066030  26.6443750  13.5847290  35.0550420
  26.3240620  12.8656530  35.5996110  25.9702110  14.2602360  35.1286480
  24.6857920  14.4307740  19.9983570  24.6768020  15.1637430  19.3828080
  23.7656280  14.1839320  20.0910530  20.2864560   9.6522630  20.7430330
  19.6792510  10.3921530  20.7525630  20.7613910   9.7421990  19.9168530
  29.8597350   3.8173450  30.4187220  30.2278170   2.9968660  30.7466790
  28.9995550   3.8775340  30.8342870  33.2259380   2.7730390  21.2274780
  32.5972540   2.8776060  20.5133010  32.7311300   2.9927170  22.0168660
  27.6717520  14.4935980  18.6608760  27.7729500  14.2899970  17.7310740
  26.7719260  14.2394260  18.8656540  25.1943410   5.0516340  22.6432660
  24.4859560   5.5202680  23.0846270  25.4787890   4.3938350  23.2777850
  26.8199340   6.4713040  30.6425190  27.3184590   6.9458860  31.3077040
  26.9622290   5.5476560  30.8495220  29.2258840   1.7767000  24.0828450
  29.1026620   1.7953130  23.1337960  30.1743400   1.8245940  24.2026850
  26.3135630  17.0122300  23.3556430  26.5677130  16.9743690  22.4335800
  25.3648110  16.8855630  23.3484680  23.3978430   3.3601420  20.0183370
  24.2468960   3.7971570  19.9523560  23.0309700   3.6721680  20.8455430
  34.0266200   2.6881000  31.4853580  33.5239800   3.4286400  31.8247390
  34.8422860   3.0765000  31.1690370  32.3188210   7.9314180  24.9314940
  31.3778350   7.9464410  25.1062630  32.6332280   7.1450140  25.3775240
  22.2969850   9.6133780  18.4918900  23.0633120   9.5015140  19.0544330
  22.3744540   8.9171750  17.8395670  20.9916610   7.0458850  19.1751790
  21.0720200   6.0986360  19.2869190  21.8836360   7.3765730  19.2812450
  34.3213790  15.1023030  26.6069200  34.4461210  15.9254200  27.0793010
  35.1879350  14.8913760  26.2593350  21.7931320  17.1954240  26.2786330
  22.5293800  16.6469700  26.5494900  22.1772240  18.0610250  26.1392320
  18.6776800  13.2627810  22.1527840  17.7516580  13.5048950  22.1433250
  19.1433230  14.0902070  22.0312590  20.7989600  16.3800310  35.4671910
  21.6002330  16.7012360  35.8807310  20.2841420  16.0195890  36.1891820
  24.9033630  16.3684550  18.1011900  25.6962240  16.6573380  17.6493690
  24.3837980  15.9376720  17.4224380  29.6354230  12.4880180  35.4147320
  29.0292390  12.5111780  34.6743070  29.3308340  11.7563220  35.9514570
  31.0654600  16.2160470  34.0256730  32.0176350  16.1318490  33.9756970
  30.9182820  16.8802180  34.6990520  33.9563800  15.5954680  19.5248640
  33.6705310  15.1819820  18.7102820  33.7583350  16.5242390  19.4049160
  18.5187410   8.8673770  34.4107960  19.0226430   8.2881050  34.9824190
  17.7794830   9.1514000  34.9484330  25.4211030  11.5887960  17.9654250
  25.3161670  10.9740310  18.6915630  25.2535250  11.0653850  17.1817260
  25.5725350  10.2744760  33.9443480  24.8071020  10.8429760  33.8598150
  25.7541310   9.9820970  33.0511710  28.6613760  10.6507990  18.5696240
  28.1123860  11.0977290  19.2138980  29.2833020  10.1457240  19.0933910
  32.7148700  12.0050090  34.5018500  33.4558170  12.3425850  33.9985960
  31.9521380  12.1742150  33.9488270  20.5510490   7.0103360  35.3058030
  20.5915830   6.7117230  36.2143260  21.4055990   7.4110970  35.1465550
  24.3288880   9.6098910  20.4661540  24.7505300   9.4438780  21.3092930
  24.4539720   8.7999140  19.9716680  22.4916300   5.5895460  33.2732520
  21.9612760   5.0986410  32.6455860  23.1604370   6.0179660  32.7390450
  26.8416520   8.6336520  17.7138640  27.3622180   7.9185540  17.3479790
  27.4884920   9.2722390  18.0139150  31.3894360  10.0564920  33.0373710
  31.8035380  10.2110000  33.8864130  30.4545360  10.1820140  33.1999490
  31.8616530   7.3961080  35.0412860  32.4437300   6.6413400  34.9533340
  32.0378300   7.9268520  34.2644340  22.9788600   2.5557830  33.3529810
  22.8845470   1.9378580  32.6280680  22.3985990   3.2824120  33.1259720
  26.1509590  10.0085400  31.0069640  26.5697700  10.8518130  30.8345880
  25.2318220  10.1457440  30.7776420  28.4873490   7.7401580  32.3907480
  28.6069700   7.1442720  33.1302320  29.3467490   7.7771270  31.9708780
  30.8261390   8.2938770  30.9669990  30.2996610   8.8181390  30.3635130
  31.1692730   8.9266160  31.5979720  23.2247780   5.6832140  17.4119700
  23.0236840   4.8199500  17.7733040  23.0539830   5.5965500  16.4741300
  24.0017010  16.3138410  32.1227370  23.4638100  17.0384470  31.8036070
  24.2550970  15.8368750  31.3324710  25.2542260   4.2822930  33.6483300
  25.8441950   3.9738780  34.3361120  24.4362500   3.8102680  33.8043200
  30.0735690   3.8988740  33.8816320  29.3851210   3.2370280  33.8166310
  30.7941710   3.4527010  34.3264780  22.0230580   2.7832760  17.3997580
  22.3256480   2.7900190  16.4916730  22.7625170   2.4330620  17.8965240
  26.8579220  17.5489620  32.3814020  26.7837920  18.4524760  32.6886390
  25.9558060  17.2301520  32.3536090  27.4064550  16.7148130  20.0040380
  28.3015340  17.0533100  20.0259140  27.4382180  15.9927540  19.3764660
  21.0460710  12.0875180  18.2327380  21.4835580  12.6304850  18.8884960
  21.5308440  11.2622130  18.2423720  18.2606510  14.8764210  25.6847640
  18.5909520  14.0085270  25.4526280  18.6897510  15.0822730  26.5152600
  22.8568430  13.2073220  23.3449610  22.5563970  13.0838190  24.2453520
  22.7505920  12.3481810  22.9365340  18.7496720  15.7434800  28.4229270
  18.3127710  15.9235600  29.2553420  19.3174400  16.5009420  28.2810990
  34.3858900  15.2451800  32.7106580  33.7860890  15.3044360  31.9670500
  34.5152800  14.3056780  32.8403430  35.6260350  12.9869620  18.0476290
  34.7953310  13.0546270  18.5183520  35.8032180  13.8773740  17.7443150
  35.0816810   9.7317100  20.5510490  35.8435720  10.3013750  20.6570180
  35.0971180   9.1644300  21.3218800  18.5821150   8.2555030  24.7818150
  17.9269990   7.9866670  24.1377850  19.4199100   8.1459510  24.3320130
  36.0876780  10.5867200  25.3952420  36.4585610   9.8034520  24.9888390
  36.7278710  11.2756300  25.2169720  33.0710540  11.9703780  30.8082740
  32.2570380  12.4000940  31.0708530  33.4784740  12.5822190  30.1951790
  35.1335980  10.0251470  17.7083010  35.4084820  10.9330350  17.5802230
  34.9446720   9.9614000  18.6445000  31.5311590   3.0496320  19.0036640
  31.9496470   2.8627300  18.1633300  31.2247650   2.1975370  19.3139570
  35.0301320   7.9620460  22.7012440  34.6544920   7.1948390  22.2693730
  34.3004440   8.3443160  23.1887370  19.6197080   8.6407600  29.3221490
  19.9870120   8.5535000  30.2017510  19.0507900   7.8774150  29.2228350
  34.4200940   7.1091980  32.3351960  34.1887030   6.8804730  31.4349910
  34.6805490   8.0291530  32.2896850  19.1713080   5.5516690  33.2279910
  18.2769130   5.5183450  33.5673620  19.7110630   5.7503480  33.9931160
  17.7959230   5.4653960  20.7243480  16.8923310   5.7284160  20.5495140
  18.2799850   5.7365130  19.9443440  34.3052280   6.1877950  26.0019680
  34.8289760   5.6940600  25.3709850  34.8911700   6.3228310  26.7467250
  34.4842000   6.2717820  29.5239230  33.5344710   6.2381360  29.6384220
  34.6655010   7.1817930  29.2889000  20.3386440   4.5219500  18.6337860
  21.0478140   4.1002720  18.1485140  19.6226380   4.5894730  18.0021210
  33.7952250   5.4451300  21.9412090  34.2911370   5.2122170  22.7260970
  33.5968320   4.6063140  21.5249730  35.2239410   4.0812250  24.4749770
  35.1138690   3.9268290  25.4132040  35.9847000   3.5533190  24.2325180
  36.1129680   1.9120170  17.7155910  37.0378990   1.7801350  17.5074200
  36.0905470   1.9912990  18.6692360  36.1868170   2.6830830  20.3412620
  35.3919670   2.6175950  20.8705530  36.3911450   3.6181470  20.3297970
  33.1286590  16.7222380  24.3351010  33.7245660  16.4006950  23.6585430
  33.3864740  16.2494200  25.1264280  21.0349160  13.1540290  34.4841640
  20.9918790  12.7833200  35.3656100  21.1660170  14.0917860  34.6243460
  24.7355190  14.7099880  30.0851360  24.4946550  14.9774440  29.1981880
  25.6757830  14.8805610  30.1402220  35.9959350  16.7294260  30.8862000
  35.5017630  17.1263130  30.1689130  35.3872640  16.1043470  31.2799280
  20.8737190  16.1002540  31.6039420  20.2797510  15.9687240  32.3429460
  20.8661030  15.2640680  31.1381520  33.6798800  17.3717680  28.1648740
  33.2201770  18.1233490  27.7906760  33.0511260  16.6524150  28.1063540
  20.5049420  13.4660920  30.5547460  19.7783480  12.8466210  30.4873410
  20.5658570  13.8601530  29.6845540  24.1094520  15.6805920  27.3396870
  24.6259540  15.0693280  26.8145130  24.7591900  16.1834700  27.8307880
  26.8490020  16.5714410  28.1665850  27.1367830  16.3168710  27.2898860
  27.3613240  16.0191770  28.7571420  18.7879420  16.7835310  23.7644220
  18.6201460  16.1505990  24.4626110  17.9213930  16.9894710  23.4138410
  25.9521250   2.7291360  24.2578390  25.1395760   2.3548250  23.9174270
  26.4562890   1.9736440  24.5599580  20.3942120  15.4768540  21.2094360
  19.8689740  15.8576570  20.5056320  20.3186700  16.1019310  21.9304070
  26.9162380  17.4930510  35.5334050  27.8429690  17.2574780  35.5770010
  26.9012810  18.3202510  35.0520080  35.1507440  17.0356080  22.5308300
  35.3259630  16.3493820  21.8869220  34.4529010  17.5603130  22.1384970
  22.9935090  17.4250920  20.0843610  23.7253910  17.1410200  19.5367500
  23.2528760  17.1864200  20.9742990  22.1549880  13.5415650  20.0889940
  21.5258760  14.0100750  20.6375770  22.2697710  12.6964870  20.5236130
  33.4839940  16.7200370  35.3575090  34.2765260  16.2249600  35.1501050
  33.7773090  17.3990510  35.9650700  29.6099600   7.5921310   6.2391140
  29.5293650   6.6775920   5.9682850  29.1964020   8.0888380   5.5330850
  27.7417640   9.3700330   8.1200410  26.9659740   8.8900770   8.4098980
  28.3930570   8.6905980   7.9456570  21.7583470   9.6820140   8.9976170
  20.9268350   9.4268850   9.3972680  22.3664450   9.7530910   9.7334090
  31.7625070  13.7760520   6.8999540  31.3006600  13.0047760   7.2286710
  32.5750620  13.8026590   7.4051990  21.7384730  13.7160230   9.1934190
  22.0412770  12.8257970   9.0144410  22.4828320  14.2730450   8.9656440
  20.1675420   4.6422030   2.7818560  19.2792120   4.9838000   2.6798440
  20.4516610   4.4422350   1.8899390  18.1308430   7.2427680   8.6658260
  18.7024540   6.4749880   8.6661900  18.1309970   7.5416440   7.7564870
  27.9888380  16.0618530   6.5203530  27.3699820  16.5176030   5.9497970
  28.8440160  16.2169990   6.1193230  27.1826630  12.0457520   8.1270570
  27.1134910  11.1047460   7.9659700  27.9446490  12.1358930   8.6993140
  19.3733300   2.6512040  10.4527190  19.1936140   1.7537790  10.7329950
  18.9713380   3.1983910  11.1274140  28.2131800   4.8527900   8.3539500
  28.5896620   3.9799780   8.2413170  28.1151310   5.1886600   7.4629940
  22.3436810   3.2253530   3.8156940  22.4503560   4.1257260   4.1225700
  21.4329170   3.1771500   3.5251590  31.9955920   2.3478340   5.2867840
  32.8165540   1.8574910   5.3293320  32.0290000   2.9376000   6.0399680
  19.9919970   5.1472540   9.0609530  20.6730080   5.4110910   9.6796930
  19.6768020   4.3073410   9.3947540  24.1844540   6.1939900   8.1482120
  24.6922760   6.6920870   8.7887140  24.7157780   5.4175100   7.9721480
  36.2855470   4.3645090  11.8511470  35.5807640   4.7526800  11.3326580
  36.5513390   5.0595380  12.4532400  28.8551730  10.9457770   3.9135440
  28.2369000  11.4107220   3.3498160  29.3674980  11.6385250   4.3304950
  23.7183490  10.4733640  10.5919040  23.3852870  11.1002560  11.2340110
  23.8950170  10.9995520   9.8120710  32.2317400   4.2878720   8.0595380
  31.5272970   4.5763610   8.6398490  32.5929560   5.0978830   7.6994940
  22.1495970   2.5448420  10.4215990  22.4912780   3.3890470  10.1269860
  21.2111780   2.6932160  10.5381330  22.9302590  12.4414440  12.4068220
  23.5476590  13.1165520  12.1252670  22.0695710  12.8502420  12.3155720
  33.8480180  13.9053850  10.3222860  33.1643700  14.5752960  10.3139530
  34.3874470  14.1034500   9.5567720  35.3004320   3.7333510   8.4504590
  34.3529230   3.7672490   8.5820020  35.6254310   4.5472460   8.8353950
  31.3838920  15.7497980   9.0368040  31.3966080  15.3460270   8.1690300
  30.8314140  16.5245270   8.9329470  32.6784340  12.4714200   4.1258210
  32.5680670  11.5288530   4.2507630  32.6752590  12.8329840   5.0120970
  30.7824360  10.6527820  10.3650650  31.1993150  10.4387930   9.5304110
  31.5064180  10.9100610  10.9359270  28.2204620   8.0979520   3.4820700
  27.2933900   8.0316900   3.7109170  28.3729440   9.0359650   3.3675940
  34.7286460   9.0515040  10.4566890  33.9005090   9.1208130   9.9817020
  35.3236940   9.6369350   9.9882720  32.2501910   9.6599820   3.9855950
  31.6314330   9.3219370   3.3382250  32.2326360   9.0159580   4.6935140
  31.6928470   5.8384360  11.4021760  31.2799650   6.6638070  11.6561750
  30.9604420   5.2529400  11.2098120  23.8261260   8.6244260   6.2640430
  23.4218260   7.9121510   5.7686330  23.9124380   8.2797500   7.1528470
  24.2942960  12.3111820   8.4279640  23.9971250  11.7057290   7.7487420
  25.2442780  12.3489130   8.3169000  22.5389880   5.3987470  10.0439470
  23.0904470   5.5082810   9.2692720  23.0533390   5.7725070  10.7594700
  32.3828570  15.8843690  12.0902740  31.9059130  16.6915880  11.8975350
  31.6990360  15.2322020  12.2428950  23.3861390  12.0493510  15.0787440
  22.4889920  12.2733480  15.3260840  23.4114260  12.1728450  14.1298840
  22.2132610   8.9206830  13.6544810  22.0740380   9.7929630  14.0232210
  21.3313970   8.5779640  13.5092750  28.5361990  13.8382700   4.9609940
  28.9757900  14.5807030   4.5465330  28.4748880  14.0809270   5.8848900
  24.0112960  14.8628530  15.8629960  23.9828390  15.2671480  14.9958390
  23.8477930  13.9338890  15.7001560  20.5265890   7.5189240   3.7647080
  20.4063490   8.2451330   3.1528350  20.2166780   6.7492150   3.2874990
  35.9627780  15.6455630  17.1594130  36.4387500  16.1238520  17.8383210
  36.5834940  15.5773120  16.4339630  18.1651260  10.6904380   9.5715720
  18.2431680  10.8253150   8.6271440  18.7792940   9.9820270   9.7643840
  19.4098890  12.3904570   5.9821900  19.0026970  12.5319160   5.1275500
  20.3011900  12.1064730   5.7793110  35.3661030  12.8368480  14.3194140
  35.4924090  12.5980360  13.4011320  35.4082410  12.0053020  14.7916220
  29.2277770  16.5396480  12.8888950  29.7422440  16.4504490  13.6911380
  28.3846850  16.8856180  13.1816860  31.2032170  16.8251820   2.3172950
  31.0433310  16.5354760   3.2154780  31.0378880  16.0491950   1.7818180
  23.6820550  16.6050350   4.0944570  23.5063030  15.6885890   3.8812370
  22.8276290  16.9637640   4.3342370  30.4708230  15.9602090   4.9519440
  30.9265180  15.1791470   5.2658060  30.8100750  16.6708910   5.4960620
  35.2185040   4.8900940  15.2843880  34.6029310   5.3980610  14.7559340
  34.8981460   3.9899270  15.2269820  18.2210780  11.7318550  12.1110180
  18.3841820  11.2623910  11.2929550  18.6863230  11.2242110  12.7759020
  27.2799360   3.7292830  12.7506070  26.8178730   3.9375850  13.5626010
  26.8777470   2.9152180  12.4476740  32.2803870   4.9501780  13.8802730
  31.4297460   4.6507530  14.2011800  32.1205660   5.1943790  12.9686550
  29.3753580   6.4503530  15.9801520  29.7006990   5.6167280  15.6403750
  30.1633910   6.9732050  16.1279850  22.7843770   5.9857880   4.8752000
  22.5584690   5.7695050   5.7798620  22.0036300   6.4186340   4.5297970
  30.0141530   5.9921250   3.4742650  29.4150420   6.7157050   3.2906270
  30.5621140   5.9298030   2.6919100  25.2242980   6.8843460  15.5412270
  25.1286580   5.9438190  15.3912670  26.0674960   7.1058530  15.1460340
  28.6206400   4.6284790   5.5045930  29.0135970   4.9456990   4.6914620
  28.9823250   3.7496670   5.6190450  20.3553520   3.2957130  13.6946050
  19.9616910   4.1432340  13.9018830  19.6671920   2.6583500  13.8854690
  26.9298570   3.3792100  16.7642790  26.2396890   3.1864300  17.3988880
  27.6730870   3.6626740  17.2967090  29.2061540   7.2190540   9.5996710
  28.4742660   7.7277350   9.9486810  28.8085880   6.4020520   9.2985490
  25.6438930   3.8944740   8.0049200  25.6474990   3.4534690   7.1553740
  26.5390050   4.2162070   8.1121020  21.4941310   3.7771230   6.9643410
  21.1541360   4.2546460   7.7210460  20.7318630   3.3236350   6.6044510
  29.6687450   2.6724220   9.0119650  29.6860190   3.1232870   9.8561500
  29.4203030   1.7729860   9.2253090  19.7949760  11.1069980  14.2705990
  19.4104550  10.4663650  14.8688950  20.1061950  11.8106100  14.8400720
  25.9446900   7.9546520   9.7514610  26.3117030   7.4805090  10.4975950
  25.7551960   8.8288090  10.0922950  18.8087390   2.6990210   5.8808080
  18.5234310   2.3345880   6.7186700  18.7466250   1.9670670   5.2671220
  23.7346270   6.9955160  12.0698820  23.4303340   7.8747140  12.2949180
  24.6892730   7.0554950  12.1056260  22.2628060  11.2016150   2.6665670
  21.4890320  10.6613770   2.5064390  22.9922690  10.6822760   2.3283430
  33.0216040  10.1981510   8.4592060  33.7415160  10.6936800   8.0688170
  32.8197860   9.5199400   7.8145930  28.4034840  10.2690570  14.3461060
  28.3372150   9.3486240  14.0918650  27.7739980  10.3666010  15.0605700
  22.3065460  10.8696530   6.3044480  22.8244130  10.0664790   6.2501370
  21.8549480  10.8075670   7.1461310  19.7910000   7.8357900  13.2170180
  19.4324940   8.5011750  13.8043520  19.4964560   7.0041450  13.5882800
  22.9923120   8.2942140  16.1009730  22.6923260   8.4399320  15.2037550
  23.7634360   7.7347430  16.0083120  28.3351570  13.0911140  14.0964860
  28.3496110  12.1592100  13.8783770  27.6276670  13.1770900  14.7354630
  34.5462780   9.7318480  13.4433440  33.8210970  10.3247260  13.2462830
  35.0738240   9.7242020  12.6446810  34.4975890  14.1293220   3.0945600
  33.8552050  13.4748840   3.3689320  34.1106550  14.5348310   2.3186270
  30.0762370  11.4578650   6.9417290  30.4286190  10.8606780   6.2818660
  29.1924700  11.1322880   7.1125540  26.1625650  12.2176340   4.3487700
  26.8496780  12.7645550   4.7295290  25.3758070  12.7617070   4.3837310
  25.4652860   9.2222370   3.9613060  25.9215640  10.0327620   4.1873250
  25.1141070   8.9045510   4.7931550  27.7685470  14.7328710  11.1905360
  28.4127690  14.9388090  11.8678780  28.1314910  13.9717110  10.7376210
  29.0417550  12.7361060   9.9082810  29.6839780  12.0354220  10.0214980
  29.5666900  13.5159500   9.7279700  30.8155170  13.5355960  13.1118870
  31.1511410  14.1222650  13.7896790  29.8955510  13.4048670  13.3416660
  18.6531160  15.3131400  14.8808810  18.7622280  14.3726140  14.7404200
  18.0011720  15.5786150  14.2322540  26.6443750  13.5847290  16.2806930
  26.3240620  12.8656530  16.8252620  25.9702110  14.2602360  16.3542990
  29.8597350   3.8173450  11.6443730  30.2278170   2.9968660  11.9723300
  28.9995550   3.8775340  12.0599380  33.2259380   2.7730390   2.4531290
  32.5972540   2.8776060   1.7389520  32.7311300   2.9927170   3.2425170
  25.1943410   5.0516340   3.8689170  24.4859560   5.5202680   4.3102780
  25.4787890   4.3938350   4.5034360  26.8199340   6.4713040  11.8681700
  27.3184590   6.9458860  12.5333550  26.9622290   5.5476560  12.0751730
  29.2258840   1.7767000   5.3084960  29.1026620   1.7953130   4.3594470
  30.1743400   1.8245940   5.4283360  26.3135630  17.0122300   4.5812940
  26.5677130  16.9743690   3.6592310  25.3648110  16.8855630   4.5741190
  34.0266200   2.6881000  12.7110090  33.5239800   3.4286400  13.0503900
  34.8422860   3.0765000  12.3946880  32.3188210   7.9314180   6.1571450
  31.3778350   7.9464410   6.3319140  32.6332280   7.1450140   6.6031750
  34.3213790  15.1023030   7.8325710  34.4461210  15.9254200   8.3049520
  35.1879350  14.8913760   7.4849860  21.7931320  17.1954240   7.5042840
  22.5293800  16.6469700   7.7751410  22.1772240  18.0610250   7.3648830
  18.6776800  13.2627810   3.3784350  17.7516580  13.5048950   3.3689760
  19.1433230  14.0902070   3.2569100  20.7989600  16.3800310  16.6928420
  21.6002330  16.7012360  17.1063820  20.2841420  16.0195890  17.4148330
  29.6354230  12.4880180  16.6403830  29.0292390  12.5111780  15.8999580
  29.3308340  11.7563220  17.1771080  31.0654600  16.2160470  15.2513240
  32.0176350  16.1318490  15.2013480  30.9182820  16.8802180  15.9247030
  18.5187410   8.8673770  15.6364470  19.0226430   8.2881050  16.2080700
  17.7794830   9.1514000  16.1740840  25.5725350  10.2744760  15.1699990
  24.8071020  10.8429760  15.0854660  25.7541310   9.9820970  14.2768220
  32.7148700  12.0050090  15.7275010  33.4558170  12.3425850  15.2242470
  31.9521380  12.1742150  15.1744780  20.5510490   7.0103360  16.5314540
  20.5915830   6.7117230  17.4399770  21.4055990   7.4110970  16.3722060
  22.4916300   5.5895460  14.4989030  21.9612760   5.0986410  13.8712370
  23.1604370   6.0179660  13.9646960  31.3894360  10.0564920  14.2630220
  31.8035380  10.2110000  15.1120640  30.4545360  10.1820140  14.4256000
  31.8616530   7.3961080  16.2669370  32.4437300   6.6413400  16.1789850
  32.0378300   7.9268520  15.4900850  22.9788600   2.5557830  14.5786320
  22.8845470   1.9378580  13.8537190  22.3985990   3.2824120  14.3516230
  26.1509590  10.0085400  12.2326150  26.5697700  10.8518130  12.0602390
  25.2318220  10.1457440  12.0032930  28.4873490   7.7401580  13.6163990
  28.6069700   7.1442720  14.3558830  29.3467490   7.7771270  13.1965290
  30.8261390   8.2938770  12.1926500  30.2996610   8.8181390  11.5891640
  31.1692730   8.9266160  12.8236230  24.0017010  16.3138410  13.3483880
  23.4638100  17.0384470  13.0292580  24.2550970  15.8368750  12.5581220
  25.2542260   4.2822930  14.8739810  25.8441950   3.9738780  15.5617630
  24.4362500   3.8102680  15.0299710  30.0735690   3.8988740  15.1072830
  29.3851210   3.2370280  15.0422820  30.7941710   3.4527010  15.5521290
  26.8579220  17.5489620  13.6070530  26.7837920  18.4524760  13.9142900
  25.9558060  17.2301520  13.5792600  18.2606510  14.8764210   6.9104150
  18.5909520  14.0085270   6.6782790  18.6897510  15.0822730   7.7409110
  22.8568430  13.2073220   4.5706120  22.5563970  13.0838190   5.4710030
  22.7505920  12.3481810   4.1621850  18.7496720  15.7434800   9.6485780
  18.3127710  15.9235600  10.4809930  19.3174400  16.5009420   9.5067500
  34.3858900  15.2451800  13.9363090  33.7860890  15.3044360  13.1927010
  34.5152800  14.3056780  14.0659940  35.0816810   9.7317100   1.7767000
  35.8435720  10.3013750   1.8826690  35.0971180   9.1644300   2.5475310
  18.5821150   8.2555030   6.0074660  17.9269990   7.9866670   5.3634360
  19.4199100   8.1459510   5.5576640  36.0876780  10.5867200   6.6208930
  36.4585610   9.8034520   6.2144900  36.7278710  11.2756300   6.4426230
  33.0710540  11.9703780  12.0339250  32.2570380  12.4000940  12.2965040
  33.4784740  12.5822190  11.4208300  35.0301320   7.9620460   3.9268950
  34.6544920   7.1948390   3.4950240  34.3004440   8.3443160   4.4143880
  19.6197080   8.6407600  10.5478000  19.9870120   8.5535000  11.4274020
  19.0507900   7.8774150  10.4484860  34.4200940   7.1091980  13.5608470
  34.1887030   6.8804730  12.6606420  34.6805490   8.0291530  13.5153360
  19.1713080   5.5516690  14.4536420  18.2769130   5.5183450  14.7930130
  19.7110630   5.7503480  15.2187670  34.3052280   6.1877950   7.2276190
  34.8289760   5.6940600   6.5966360  34.8911700   6.3228310   7.9723760
  34.4842000   6.2717820  10.7495740  33.5344710   6.2381360  10.8640730
  34.6655010   7.1817930  10.5145510  33.7952250   5.4451300   3.1668600
  34.2911370   5.2122170   3.9517480  33.5968320   4.6063140   2.7506240
  35.2239410   4.0812250   5.7006280  35.1138690   3.9268290   6.6388550
  35.9847000   3.5533190   5.4581690  33.1286590  16.7222380   5.5607520
  33.7245660  16.4006950   4.8841940  33.3864740  16.2494200   6.3520790
  21.0349160  13.1540290  15.7098150  20.9918790  12.7833200  16.5912610
  21.1660170  14.0917860  15.8499970  24.7355190  14.7099880  11.3107870
  24.4946550  14.9774440  10.4238390  25.6757830  14.8805610  11.3658730
  35.9959350  16.7294260  12.1118510  35.5017630  17.1263130  11.3945640
  35.3872640  16.1043470  12.5055790  20.8737190  16.1002540  12.8295930
  20.2797510  15.9687240  13.5685970  20.8661030  15.2640680  12.3638030
  33.6798800  17.3717680   9.3905250  33.2201770  18.1233490   9.0163270
  33.0511260  16.6524150   9.3320050  20.5049420  13.4660920  11.7803970
  19.7783480  12.8466210  11.7129920  20.5658570  13.8601530  10.9102050
  24.1094520  15.6805920   8.5653380  24.6259540  15.0693280   8.0401640
  24.7591900  16.1834700   9.0564390  26.8490020  16.5714410   9.3922360
  27.1367830  16.3168710   8.5155370  27.3613240  16.0191770   9.9827930
  18.7879420  16.7835310   4.9900730  18.6201460  16.1505990   5.6882620
  17.9213930  16.9894710   4.6394920  25.9521250   2.7291360   5.4834900
  25.1395760   2.3548250   5.1430780  26.4562890   1.9736440   5.7856090
  20.3942120  15.4768540   2.4350870  19.8689740  15.8576570   1.7312830
  20.3186700  16.1019310   3.1560580  26.9162380  17.4930510  16.7590560
  27.8429690  17.2574780  16.8026520  26.9012810  18.3202510  16.2776590
  35.1507440  17.0356080   3.7564810  35.3259630  16.3493820   3.1125730
  34.4529010  17.5603130   3.3641480  33.4839940  16.7200370  16.5831600
  34.2765260  16.2249600  16.3757560  33.7773090  17.3990510  17.1907210
  10.8356110  63.9151780  62.5621610  10.7550160  63.0006390  62.2913320
  10.4220530  64.4118850  61.8561320   8.9674150  65.6930800  64.4430880
   8.1916250  65.2131240  64.7329450   9.6187080  65.0136450  64.2687040
   2.9839980  66.0050610  65.3206640   2.1524860  65.7499320  65.7203150
   3.5920960  66.0761380  66.0564560  12.9881580  70.0990990  63.2230010
  12.5263110  69.3278230  63.5517180  13.8007130  70.1257060  63.7282460
   2.9641240  70.0390700  65.5164660   3.2669280  69.1488440  65.3374880
   3.7084830  70.5960920  65.2886910   8.4083140  68.3687990  64.4501040
   8.3391420  67.4277930  64.2890170   9.1703000  68.4589400  65.0223610
   9.4388310  61.1758370  64.6769970   9.8153130  60.3030250  64.5643640
   9.3407820  61.5117070  63.7860410   3.5693320  59.5484000  60.1387410
   3.6760070  60.4487730  60.4456170   2.6585680  59.5001970  59.8482060
  13.2212430  58.6708810  61.6098310  14.0422050  58.1805380  61.6523790
  13.2546510  59.2606470  62.3630150   5.4101050  62.5170370  64.4712590
   5.9179270  63.0151340  65.1117610   5.9414290  61.7405570  64.2951950
  17.5111980  60.6875560  68.1741940  16.8064150  61.0757270  67.6557050
  17.7769900  61.3825850  68.7762870   3.6937150  57.1568930  68.7376010
   3.6955590  57.6741320  67.9321910   2.8641460  56.6799110  68.7145940
  10.0808240  67.2688240  60.2365910   9.4625510  67.7337690  59.6728630
  10.5931490  67.9615720  60.6535420   4.9440000  66.7964110  66.9149510
   4.6109380  67.4233030  67.5570580   5.1206680  67.3225990  66.1351180
  13.4573910  60.6109190  64.3825850  12.7529480  60.8994080  64.9628960
  13.8186070  61.4209300  64.0225410   3.3752480  58.8678890  66.7446460
   3.7169290  59.7120940  66.4500330   2.4368290  59.0162630  66.8611800
   4.1559100  68.7644910  68.7298690   4.7733100  69.4395990  68.4483140
   3.2952220  69.1732890  68.6386190  15.0736690  70.2284320  66.6453330
  14.3900210  70.8983430  66.6370000  15.6130980  70.4264970  65.8798190
  16.5260830  60.0563980  64.7735060  15.5785740  60.0902960  64.9050490
  16.8510820  60.8702930  65.1584420   7.0580370  56.3561160  63.0691050
   7.3655350  55.8008050  62.3526550   6.1281070  56.4905620  62.8864040
  13.9040850  68.7944670  60.4488680  13.7937180  67.8519000  60.5738100
  13.9009100  69.1560310  61.3351440  12.0080870  66.9758290  66.6881120
  12.4249660  66.7618400  65.8534580  12.7320690  67.2331080  67.2589740
   9.4461130  64.4209990  59.8051170   8.5190410  64.3547370  60.0339640
   9.5985950  65.3590120  59.6906410   9.4330210  60.6926990  56.8018330
   8.4933880  60.8540950  56.8870790   9.7513470  61.4112670  56.2554320
  15.9542970  65.3745510  66.7797360  15.1261600  65.4438600  66.3047490
  16.5493450  65.9599820  66.3113190  13.4758420  65.9830290  60.3086420
  12.8570840  65.6449840  59.6612720  13.4582870  65.3390050  61.0165610
  12.9184980  62.1614830  67.7252230  12.5056160  62.9868540  67.9792220
  12.1860930  61.5759870  67.5328590   5.0517770  64.9474730  62.5870900
   4.6474770  64.2351980  62.0916800   5.1380890  64.6027970  63.4758940
   5.5199470  68.6342290  64.7510110   5.2227760  68.0287760  64.0717890
   6.4699290  68.6719600  64.6399470   3.7646390  61.7217940  66.3669940
   4.3160980  61.8313280  65.5923190   4.2789900  62.0955540  67.0825170
  11.6523120  65.2217100  57.3159170  12.0916400  64.3839530  57.1696990
  12.3651540  65.8546500  57.4023310   9.7618500  70.1613170  61.2840410
  10.2014410  70.9037500  60.8695800   9.7005390  70.4039740  62.2079370
  15.2340260  56.4759910  55.6300210  14.9212920  56.5686740  56.5299280
  15.9952730  57.0540940  55.5797640  12.1314810  70.6569850  57.2001420
  11.4379970  70.6547140  56.5403700  12.8737670  70.2329170  56.7695590
   4.2186060  57.1854780  63.4701220   3.7754210  57.9664320  63.1385740
   4.7771050  57.5084670  64.1772160   8.5055870  60.0523300  69.0736540
   8.0435240  60.2606320  69.8856480   8.1033980  59.2382650  68.7707210
   7.3344880  56.8065480  58.3507050   6.7099060  56.8025350  59.0760360
   7.2475000  55.9396440  57.9543020   6.2561960  57.7302110  65.3290820
   6.5534290  58.6364940  65.2482840   6.8047520  57.2420890  64.7150390
   4.0100280  62.3088350  61.1982470   3.7841200  62.0925520  62.1029090
   3.2292810  62.7416810  60.8528440  11.2398040  62.3151720  59.7973120
  10.6406930  63.0387520  59.6136740  11.7877650  62.2528500  59.0149570
   9.8462910  60.9515260  61.8276400  10.2392480  61.2687460  61.0145090
  10.2079760  60.0727140  61.9420920  10.4318050  63.5421010  65.9227180
   9.6999170  64.0507820  66.2717280  10.0342390  62.7250990  65.6215960
   6.8695440  60.2175210  64.3279670   6.8731500  59.7765160  63.4784210
   7.7646560  60.5392540  64.4351490   2.7197820  60.1001700  63.2873880
   2.3797870  60.5776930  64.0440930   1.9575140  59.6466820  62.9274980
   6.9315590  61.2187290  57.3186430   7.0528410  61.1773770  58.2672250
   6.5464100  62.0811440  57.1633160  10.8943960  58.9954690  65.3350120
  10.9116700  59.4463340  66.1791970  10.6459540  58.0960330  65.5483560
   5.9437090  63.5288430  56.7169730   5.3753990  63.0806680  56.0905640
   6.6526090  63.8881210  56.1834880   7.1703410  64.2776990  66.0745080
   7.5373540  63.8035560  66.8206420   6.9808470  65.1518560  66.4153420
   4.9602780  63.3185630  68.3929290   4.6559850  64.1977610  68.6179650
   5.9149240  63.3785420  68.4286730   3.4884570  67.5246620  58.9896140
   2.7146830  66.9844240  58.8294860   4.2179200  67.0053230  58.6513900
  14.2472550  66.5211980  64.7822530  14.9671670  67.0167270  64.3918640
  14.0454370  65.8429870  64.1376400   9.7082490  57.9149940  58.9251920
   8.8947100  57.4163110  58.8497230   9.5144440  58.7548190  58.5088270
  12.4230880  62.2869590  57.2214080  13.3110500  62.5986820  57.0465420
  12.3935970  61.4141840  56.8294660   3.5321970  67.1927000  62.6274950
   4.0500640  66.3895260  62.5731840   3.0805990  67.1306140  63.4691780
   8.4191470  68.4593280  57.9002250   8.7607170  69.2035510  57.4045570
   7.5904180  68.7724400  58.2627080  14.6945150  63.5981430  56.6893940
  14.6108870  64.0295650  55.8390380  15.4139340  64.0579780  57.1220760
  15.7719290  66.0548950  69.7663910  15.0467480  66.6477730  69.5693300
  16.2994750  66.0472490  68.9677280  15.7232400  70.4523690  59.4176070
  15.0808560  69.7979310  59.6919790  15.3363060  70.8578780  58.6416740
  11.3018880  67.7809120  63.2647760  11.6542700  67.1837250  62.6049130
  10.4181210  67.4553350  63.4356010   7.3882160  68.5406810  60.6718170
   8.0753290  69.0876020  61.0525760   6.6014580  69.0847540  60.7067780
   6.6909370  65.5452840  60.2843530   7.1472150  66.3558090  60.5103720
   6.3397580  65.2275980  61.1162020   8.9941980  71.0559180  67.5135830
   9.6384200  71.2618560  68.1909250   9.3571420  70.2947580  67.0606680
   2.5921150  55.8890490  60.7566050   2.4635780  55.8808390  61.7050970
   1.7683170  56.2273580  60.4057060  10.2674060  69.0591530  66.2313280
  10.9096290  68.3584690  66.3445450  10.7923410  69.8389970  66.0510170
  14.1129780  69.3440150  55.9552420  13.8867360  68.6270590  56.5477060
  13.7225980  69.0952590  55.1174170  12.0411680  69.8586430  69.4349340
  12.3767920  70.4453120  70.1127260  11.1212020  69.7279140  69.6647130
  13.6946030  67.2612090  57.6166580  13.4067730  67.7224780  58.4044460
  14.4898200  66.8009860  57.8850800   5.9114430  70.7538210  57.5470550
   5.9024530  71.4867900  56.9315060   4.9912790  70.5069790  57.6397510
  11.0853860  60.1403920  67.9674200  11.4534680  59.3199130  68.2953770
  10.2252060  60.2005810  68.3829850  14.4515890  59.0960860  58.7761760
  13.8229050  59.2006530  58.0619990  13.9567810  59.3157640  59.5655640
   8.8974030  70.8166450  56.2095740   8.9986010  70.6130440  55.2797720
   7.9975770  70.5624730  56.4143520   6.4199920  61.3746810  60.1919640
   5.7116070  61.8433150  60.6333250   6.7044400  60.7168820  60.8264830
   8.0455850  62.7943510  68.1912170   8.5441100  63.2689330  68.8564020
   8.1878800  61.8707030  68.3982200  10.4515350  58.0997470  61.6315430
  10.3283130  58.1183600  60.6824940  11.3999910  58.1476410  61.7513830
   4.6234940  59.6831890  57.5670350   5.4725470  60.1202040  57.5010540
   4.2566210  59.9952150  58.3942410  15.2522710  59.0111470  69.0340560
  14.7496310  59.7516870  69.3734370  16.0679370  59.3995470  68.7177350
  13.5444720  64.2544650  62.4801920  12.6034860  64.2694880  62.6549610
  13.8588790  63.4680610  62.9262220   3.5226360  65.9364250  56.0405880
   4.2889630  65.8245610  56.6031310   3.6001050  65.2402220  55.3882650
   2.2173120  63.3689320  56.7238770   2.2976710  62.4216830  56.8356170
   3.1092870  63.6996200  56.8299430   6.6467540  67.9118430  55.5141230
   6.5418180  67.2970780  56.2402610   6.4791760  67.3884320  54.7304240
   9.8870270  66.9738460  56.1183220   9.3380370  67.4207760  56.7625960
  10.5089530  66.4687710  56.6420890   5.5545390  65.9329380  58.0148520
   5.9761810  65.7669250  58.8579910   5.6796230  65.1229610  57.5203660
   8.0673030  64.9566990  55.2625620   8.5878690  64.2416010  54.8966770
   8.7141430  65.5952860  55.5626130   6.9706550  57.4361540  67.9344180
   6.5223850  57.4585800  67.0889730   6.3371750  57.0380560  68.5314480
   7.3766100  66.3315870  68.5556620   7.7954210  67.1748600  68.3832860
   6.4574730  66.4687910  68.3263400  12.0517900  64.6169240  68.5156970
  11.5253120  65.1411860  67.9122110  12.3949240  65.2496630  69.1466700
   4.4504290  62.0062610  54.9606680   4.2493350  61.1429970  55.3220020
   4.2796340  61.9195970  54.0228280  11.9292600  56.8170840  57.4893560
  12.2094890  55.9738740  57.8452980  11.1558330  57.0493950  58.0032310
   3.2487090  59.1063230  54.9484560   3.5512990  59.1130660  54.0403710
   3.9881680  58.7561090  55.4452220   6.4672020  58.0497850  55.9340760
   6.1194020  57.3721840  55.3543210   6.6684790  57.5887360  56.7484150
   2.2717220  68.4105650  55.7814360   2.7092090  68.9535320  56.4371940
   2.7564950  67.5852600  55.7910700   4.0824940  69.5303690  60.8936590
   3.7820480  69.4068660  61.7940500   3.9762430  68.6712280  60.4852320
  16.8516860  69.3100090  55.5963270  16.0209820  69.3776740  56.0670500
  17.0288690  70.2004210  55.2930130  16.3073320  66.0547570  58.0997470
  17.0692230  66.6244220  58.2057160  16.3227690  65.4874770  58.8705780
  17.3133290  66.9097670  62.9439400  17.6842120  66.1264990  62.5375370
  17.9535220  67.5986770  62.7656700  14.2967050  68.2934250  68.3569720
  13.4826890  68.7231410  68.6195510  14.7041250  68.9052660  67.7438770
  16.3592490  66.3481940  55.2569990  16.6341330  67.2560820  55.1289210
  16.1703230  66.2844470  56.1931980  12.7568100  59.3726790  56.5523620
  13.1752980  59.1857770  55.7120280  12.4504160  58.5205840  56.8626550
  16.2557830  64.2850930  60.2499420  15.8801430  63.5178860  59.8180710
  15.5260950  64.6673630  60.7374350  15.6457450  63.4322450  69.8838940
  15.4143540  63.2035200  68.9836890  15.9062000  64.3522000  69.8383830
  15.5308790  62.5108420  63.5506660  16.0546270  62.0171070  62.9196830
  16.1168210  62.6458780  64.2954230  15.7098510  62.5948290  67.0726210
  14.7601220  62.5611830  67.1871200  15.8911520  63.5048400  66.8375980
  15.0208760  61.7681770  59.4899070  15.5167880  61.5352640  60.2747950
  14.8224830  60.9293610  59.0736710  16.4495920  60.4042720  62.0236750
  16.3395200  60.2498760  62.9619020  17.2103510  59.8763660  61.7812160
  14.7961640  56.3436850  68.4819750  15.4333860  56.9570990  68.8478940
  14.9436530  56.3797510  67.5368980  17.3386190  58.2350640  55.2642890
  18.2635500  58.1031820  55.0561180  17.3161980  58.3143460  56.2179340
  17.4124680  59.0061300  57.8899600  16.6176180  58.9406420  58.4192510
  17.6167960  59.9411940  57.8784950   5.9611700  71.0330350  67.6338340
   5.7203060  71.3004910  66.7468860   6.9014340  71.2036080  67.6889200
  11.5448720  55.7165240  67.3556430  10.6708560  56.0500350  67.1529360
  11.4359470  55.2438420  68.1808300  12.4520700  57.9236110  68.7398150
  12.1234060  57.1087870  68.3599880  13.4003000  57.8805920  68.6163840
   9.2923540  56.6335080  66.2949340   8.5095330  57.1080580  66.5746100
   8.9986470  55.7289910  66.1862520  13.8444610  57.3358180  64.3398430
  14.2852700  57.2803280  63.4920030  13.5752200  58.2516190  64.4108610
  15.7083180  56.9673420  62.3507250  15.6471580  56.0234640  62.2038270
  16.4875210  57.0753510  62.8960710   7.1777760  59.0521830  61.8065370
   6.3652270  58.6778720  61.4661250   7.6819400  58.2966910  62.1086560
  11.6802740  55.7164280  63.0448440  12.2832110  56.2884490  63.5196960
  10.9395730  56.2803720  62.8222340  14.8237340  56.1185840  58.3188720
  15.0187970  57.0169290  58.5856150  14.0367210  55.8872920  58.8121670
   3.0089100  57.4646610  57.3565030   3.5381860  56.6776410  57.2272980
   3.6417420  58.1437800  57.5900560   5.2026940  57.2021750  60.4110420
   4.5729680  56.5009060  60.5780550   4.6632080  57.9625880  60.1943580
   3.3806390  69.8646120  57.6376920   2.7515270  70.3331220  58.1862750
   3.4954220  69.0195340  58.0723110  10.8356110  63.9151780  43.7878120
  10.7550160  63.0006390  43.5169830  10.4220530  64.4118850  43.0817830
   8.9674150  65.6930800  45.6687390   8.1916250  65.2131240  45.9585960
   9.6187080  65.0136450  45.4943550   2.9839980  66.0050610  46.5463150
   2.1524860  65.7499320  46.9459660   3.5920960  66.0761380  47.2821070
  12.9881580  70.0990990  44.4486520  12.5263110  69.3278230  44.7773690
  13.8007130  70.1257060  44.9538970   2.9641240  70.0390700  46.7421170
   3.2669280  69.1488440  46.5631390   3.7084830  70.5960920  46.5143420
   8.4083140  68.3687990  45.6757550   8.3391420  67.4277930  45.5146680
   9.1703000  68.4589400  46.2480120   9.4388310  61.1758370  45.9026480
   9.8153130  60.3030250  45.7900150   9.3407820  61.5117070  45.0116920
   3.5693320  59.5484000  41.3643920   3.6760070  60.4487730  41.6712680
   2.6585680  59.5001970  41.0738570  13.2212430  58.6708810  42.8354820
  14.0422050  58.1805380  42.8780300  13.2546510  59.2606470  43.5886660
   5.4101050  62.5170370  45.6969100   5.9179270  63.0151340  46.3374120
   5.9414290  61.7405570  45.5208460  17.5111980  60.6875560  49.3998450
  16.8064150  61.0757270  48.8813560  17.7769900  61.3825850  50.0019380
   3.6937150  57.1568930  49.9632520   3.6955590  57.6741320  49.1578420
   2.8641460  56.6799110  49.9402450  10.0808240  67.2688240  41.4622420
   9.4625510  67.7337690  40.8985140  10.5931490  67.9615720  41.8791930
   4.9440000  66.7964110  48.1406020   4.6109380  67.4233030  48.7827090
   5.1206680  67.3225990  47.3607690  13.4573910  60.6109190  45.6082360
  12.7529480  60.8994080  46.1885470  13.8186070  61.4209300  45.2481920
   3.3752480  58.8678890  47.9702970   3.7169290  59.7120940  47.6756840
   2.4368290  59.0162630  48.0868310   4.1559100  68.7644910  49.9555200
   4.7733100  69.4395990  49.6739650   3.2952220  69.1732890  49.8642700
  15.0736690  70.2284320  47.8709840  14.3900210  70.8983430  47.8626510
  15.6130980  70.4264970  47.1054700  16.5260830  60.0563980  45.9991570
  15.5785740  60.0902960  46.1307000  16.8510820  60.8702930  46.3840930
   7.0580370  56.3561160  44.2947560   7.3655350  55.8008050  43.5783060
   6.1281070  56.4905620  44.1120550  13.9040850  68.7944670  41.6745190
  13.7937180  67.8519000  41.7994610  13.9009100  69.1560310  42.5607950
  12.0080870  66.9758290  47.9137630  12.4249660  66.7618400  47.0791090
  12.7320690  67.2331080  48.4846250   9.4461130  64.4209990  41.0307680
   8.5190410  64.3547370  41.2596150   9.5985950  65.3590120  40.9162920
   9.4330210  60.6926990  38.0274840   8.4933880  60.8540950  38.1127300
   9.7513470  61.4112670  37.4810830  15.9542970  65.3745510  48.0053870
  15.1261600  65.4438600  47.5304000  16.5493450  65.9599820  47.5369700
  13.4758420  65.9830290  41.5342930  12.8570840  65.6449840  40.8869230
  13.4582870  65.3390050  42.2422120  12.9184980  62.1614830  48.9508740
  12.5056160  62.9868540  49.2048730  12.1860930  61.5759870  48.7585100
   5.0517770  64.9474730  43.8127410   4.6474770  64.2351980  43.3173310
   5.1380890  64.6027970  44.7015450   5.5199470  68.6342290  45.9766620
   5.2227760  68.0287760  45.2974400   6.4699290  68.6719600  45.8655980
   3.7646390  61.7217940  47.5926450   4.3160980  61.8313280  46.8179700
   4.2789900  62.0955540  48.3081680   4.6117900  68.3723980  52.6274420
   3.7146430  68.5963950  52.8747820   4.6370770  68.4958920  51.6785820
  11.6523120  65.2217100  38.5415680  12.0916400  64.3839530  38.3953500
  12.3651540  65.8546500  38.6279820   3.4389120  65.2437300  51.2031790
   3.2996890  66.1160100  51.5719190   2.5570480  64.9010110  51.0579730
   9.7618500  70.1613170  42.5096920  10.2014410  70.9037500  42.0952310
   9.7005390  70.4039740  43.4335880  15.2340260  56.4759910  36.8556720
  14.9212920  56.5686740  37.7555790  15.9952730  57.0540940  36.8054150
  16.5917540  69.1598950  51.8681120  16.7180600  68.9210830  50.9498300
  16.6338920  68.3283490  52.3403200  12.1314810  70.6569850  38.4257930
  11.4379970  70.6547140  37.7660210  12.8737670  70.2329170  37.9952100
  16.4441550  61.2131410  52.8330860  15.8285820  61.7211080  52.3046320
  16.1237970  60.3129740  52.7756800   4.2186060  57.1854780  44.6957730
   3.7754210  57.9664320  44.3642250   4.7771050  57.5084670  45.4028670
   8.5055870  60.0523300  50.2993050   8.0435240  60.2606320  51.1112990
   8.1033980  59.2382650  49.9963720  13.5060380  61.2732250  51.4289710
  12.6553970  60.9738000  51.7498780  13.3462170  61.5174260  50.5173530
  10.6010090  62.7734000  53.5288500  10.9263500  61.9397750  53.1890730
  11.3890420  63.2962520  53.6766830   7.3344880  56.8065480  39.5763560
   6.7099060  56.8025350  40.3016870   7.2475000  55.9396440  39.1799530
   6.2561960  57.7302110  46.5547330   6.5534290  58.6364940  46.4739350
   6.8047520  57.2420890  45.9406900   4.0100280  62.3088350  42.4238980
   3.7841200  62.0925520  43.3285600   3.2292810  62.7416810  42.0784950
  11.2398040  62.3151720  41.0229630  10.6406930  63.0387520  40.8393250
  11.7877650  62.2528500  40.2406080   6.4499490  63.2073930  53.0899250
   6.3543090  62.2668660  52.9399650   7.2931470  63.4289000  52.6947320
   9.8462910  60.9515260  43.0532910  10.2392480  61.2687460  42.2401600
  10.2079760  60.0727140  43.1677430   8.1555080  59.7022570  54.3129770
   7.4653400  59.5094770  54.9475860   8.8987380  59.9857210  54.8454070
  10.4318050  63.5421010  47.1483690   9.6999170  64.0507820  47.4973790
  10.0342390  62.7250990  46.8472470   6.8695440  60.2175210  45.5536180
   6.8731500  59.7765160  44.7040720   7.7646560  60.5392540  45.6608000
   2.7197820  60.1001700  44.5130390   2.3797870  60.5776930  45.2697440
   1.9575140  59.6466820  44.1531490   6.9315590  61.2187290  38.5442940
   7.0528410  61.1773770  39.4928760   6.5464100  62.0811440  38.3889670
  10.8943960  58.9954690  46.5606630  10.9116700  59.4463340  47.4048480
  10.6459540  58.0960330  46.7740070   5.9437090  63.5288430  37.9426240
   5.3753990  63.0806680  37.3162150   6.6526090  63.8881210  37.4091390
  14.3214710  56.4086870  52.3993010  14.6460480  55.6776530  52.9250990
  14.3571220  56.0900510  51.4974000   7.1703410  64.2776990  47.3001590
   7.5373540  63.8035560  48.0462930   6.9808470  65.1518560  47.6409930
   4.9602780  63.3185630  49.6185800   4.6559850  64.1977610  49.8436160
   5.9149240  63.3785420  49.6543240   3.4884570  67.5246620  40.2152650
   2.7146830  66.9844240  40.0551370   4.2179200  67.0053230  39.8770410
  14.2472550  66.5211980  46.0079040  14.9671670  67.0167270  45.6175150
  14.0454370  65.8429870  45.3632910   9.7082490  57.9149940  40.1508430
   8.8947100  57.4163110  40.0753740   9.5144440  58.7548190  39.7344780
   9.6291350  66.5921040  51.8948040   9.5628660  65.6716710  51.6405630
   8.9996490  66.6896480  52.6092680  12.4230880  62.2869590  38.4470590
  13.3110500  62.5986820  38.2721930  12.3935970  61.4141840  38.0551170
   3.5321970  67.1927000  43.8531460   4.0500640  66.3895260  43.7988350
   3.0805990  67.1306140  44.6948290   8.4191470  68.4593280  39.1258760
   8.7607170  69.2035510  38.6302080   7.5904180  68.7724400  39.4883590
   4.2179630  64.6172610  53.6496710   3.9179770  64.7629790  52.7524530
   4.9890870  64.0577900  53.5570100   9.5608080  69.4141610  51.6451840
   9.5752620  68.4822570  51.4270750   8.8533180  69.5001370  52.2841610
  14.6945150  63.5981430  37.9150450  14.6108870  64.0295650  37.0646890
  15.4139340  64.0579780  38.3477270  15.7719290  66.0548950  50.9920420
  15.0467480  66.6477730  50.7949810  16.2994750  66.0472490  50.1933790
  15.7232400  70.4523690  40.6432580  15.0808560  69.7979310  40.9176300
  15.3363060  70.8578780  39.8673250  11.3018880  67.7809120  44.4904270
  11.6542700  67.1837250  43.8305640  10.4181210  67.4553350  44.6612520
   7.3882160  68.5406810  41.8974680   8.0753290  69.0876020  42.2782270
   6.6014580  69.0847540  41.9324290   6.6909370  65.5452840  41.5100040
   7.1472150  66.3558090  41.7360230   6.3397580  65.2275980  42.3418530
   8.9941980  71.0559180  48.7392340   9.6384200  71.2618560  49.4165760
   9.3571420  70.2947580  48.2863190   2.5921150  55.8890490  41.9822560
   2.4635780  55.8808390  42.9307480   1.7683170  56.2273580  41.6313570
  10.2674060  69.0591530  47.4569790  10.9096290  68.3584690  47.5701960
  10.7923410  69.8389970  47.2766680  14.1129780  69.3440150  37.1808930
  13.8867360  68.6270590  37.7733570  13.7225980  69.0952590  36.3430680
  12.0411680  69.8586430  50.6605850  12.3767920  70.4453120  51.3383770
  11.1212020  69.7279140  50.8903640  13.6946030  67.2612090  38.8423090
  13.4067730  67.7224780  39.6300970  14.4898200  66.8009860  39.1107310
   7.8700260  69.9077760  53.8293910   7.5497130  69.1887000  54.3739600
   7.1958620  70.5832830  53.9029970   5.9114430  70.7538210  38.7727060
   5.9024530  71.4867900  38.1571570   4.9912790  70.5069790  38.8654020
  11.0853860  60.1403920  49.1930710  11.4534680  59.3199130  49.5210280
  10.2252060  60.2005810  49.6086360  14.4515890  59.0960860  40.0018270
  13.8229050  59.2006530  39.2876500  13.9567810  59.3157640  40.7912150
   8.8974030  70.8166450  37.4352250   8.9986010  70.6130440  36.5054230
   7.9975770  70.5624730  37.6400030   6.4199920  61.3746810  41.4176150
   5.7116070  61.8433150  41.8589760   6.7044400  60.7168820  42.0521340
   8.0455850  62.7943510  49.4168680   8.5441100  63.2689330  50.0820530
   8.1878800  61.8707030  49.6238710  10.4515350  58.0997470  42.8571940
  10.3283130  58.1183600  41.9081450  11.3999910  58.1476410  42.9770340
   4.6234940  59.6831890  38.7926860   5.4725470  60.1202040  38.7267050
   4.2566210  59.9952150  39.6198920  15.2522710  59.0111470  50.2597070
  14.7496310  59.7516870  50.5990880  16.0679370  59.3995470  49.9433860
  13.5444720  64.2544650  43.7058430  12.6034860  64.2694880  43.8806120
  13.8588790  63.4680610  44.1518730   3.5226360  65.9364250  37.2662390
   4.2889630  65.8245610  37.8287820   3.6001050  65.2402220  36.6139160
   2.2173120  63.3689320  37.9495280   2.2976710  62.4216830  38.0612680
   3.1092870  63.6996200  38.0555940  10.8610740  68.8110650  54.1890810
  10.2548900  68.8342250  53.4486560  10.5564850  68.0793690  54.7258060
   6.6467540  67.9118430  36.7397740   6.5418180  67.2970780  37.4659120
   6.4791760  67.3884320  35.9560750   6.7981860  66.5975230  52.7186970
   6.0327530  67.1660230  52.6341640   6.9797820  66.3051440  51.8255200
   9.8870270  66.9738460  37.3439730   9.3380370  67.4207760  37.9882470
  10.5089530  66.4687710  37.8677400  13.9405210  68.3280560  53.2761990
  14.6814680  68.6656320  52.7729450  13.1777890  68.4972620  52.7231760
   1.7767000  63.3333830  54.0801520   1.8172340  63.0347700  54.9886750
   2.6312500  63.7341440  53.9209040   5.5545390  65.9329380  39.2405030
   5.9761810  65.7669250  40.0836420   5.6796230  65.1229610  38.7460170
   3.7172810  61.9125930  52.0476010   3.1869270  61.4216880  51.4199350
   4.3860880  62.3410130  51.5133940   8.0673030  64.9566990  36.4882130
   8.5878690  64.2416010  36.1223280   8.7141430  65.5952860  36.7882640
  12.6150870  66.3795390  51.8117200  13.0291890  66.5340470  52.6607620
  11.6801870  66.5050610  51.9742980  13.0873040  63.7191550  53.8156350
  13.6693810  62.9643870  53.7276830  13.2634810  64.2498990  53.0387830
   4.2045110  58.8788300  52.1273300   4.1101980  58.2609050  51.4024170
   3.6242500  59.6054590  51.9003210   6.9706550  57.4361540  49.1600690
   6.5223850  57.4585800  48.3146240   6.3371750  57.0380560  49.7570990
   7.3766100  66.3315870  49.7813130   7.7954210  67.1748600  49.6089370
   6.4574730  66.4687910  49.5519910   9.7130000  64.0632050  51.1650970
   9.8326210  63.4673190  51.9045810  10.5724000  64.1001740  50.7452270
  12.0517900  64.6169240  49.7413480  11.5253120  65.1411860  49.1378620
  12.3949240  65.2496630  50.3723210   4.4504290  62.0062610  36.1863190
   4.2493350  61.1429970  36.5476530   4.2796340  61.9195970  35.2484790
   6.4798770  60.6053400  52.4226790   7.0698460  60.2969250  53.1104610
   5.6619010  60.1333150  52.5786690  11.2992200  60.2219210  52.6559810
  10.6107720  59.5600750  52.5909800  12.0198220  59.7757480  53.1008270
  11.9292600  56.8170840  38.7150070  12.2094890  55.9738740  39.0709490
  11.1558330  57.0493950  39.2288820   3.2487090  59.1063230  36.1741070
   3.5512990  59.1130660  35.2660220   3.9881680  58.7561090  36.6708730
   6.4672020  58.0497850  37.1597270   6.1194020  57.3721840  36.5799720
   6.6684790  57.5887360  37.9740660   2.2717220  68.4105650  37.0070870
   2.7092090  68.9535320  37.6628450   2.7564950  67.5852600  37.0167210
   4.0824940  69.5303690  42.1193100   3.7820480  69.4068660  43.0197010
   3.9762430  68.6712280  41.7108830  16.8516860  69.3100090  36.8219780
  16.0209820  69.3776740  37.2927010  17.0288690  70.2004210  36.5186640
  16.3073320  66.0547570  39.3253980  17.0692230  66.6244220  39.4313670
  16.3227690  65.4874770  40.0962290  17.3133290  66.9097670  44.1695910
  17.6842120  66.1264990  43.7631880  17.9535220  67.5986770  43.9913210
  14.2967050  68.2934250  49.5826230  13.4826890  68.7231410  49.8452020
  14.7041250  68.9052660  48.9695280  16.3592490  66.3481940  36.4826500
  16.6341330  67.2560820  36.3545720  16.1703230  66.2844470  37.4188490
  12.7568100  59.3726790  37.7780130  13.1752980  59.1857770  36.9376790
  12.4504160  58.5205840  38.0883060  16.2557830  64.2850930  41.4755930
  15.8801430  63.5178860  41.0437220  15.5260950  64.6673630  41.9630860
  15.6457450  63.4322450  51.1095450  15.4143540  63.2035200  50.2093400
  15.9062000  64.3522000  51.0640340  14.0845520  58.6578880  53.8875150
  14.9615700  58.6662280  54.2709150  14.0966360  57.9209720  53.2767500
  15.5308790  62.5108420  44.7763170  16.0546270  62.0171070  44.1453340
  16.1168210  62.6458780  45.5210740  15.7098510  62.5948290  48.2982720
  14.7601220  62.5611830  48.4127710  15.8911520  63.5048400  48.0632490
  15.0208760  61.7681770  40.7155580  15.5167880  61.5352640  41.5004460
  14.8224830  60.9293610  40.2993220  16.4495920  60.4042720  43.2493260
  16.3395200  60.2498760  44.1875530  17.2103510  59.8763660  43.0068670
  14.7961640  56.3436850  49.7076260  15.4333860  56.9570990  50.0735450
  14.9436530  56.3797510  48.7625490  17.3386190  58.2350640  36.4899400
  18.2635500  58.1031820  36.2817690  17.3161980  58.3143460  37.4435850
  17.4124680  59.0061300  39.1156110  16.6176180  58.9406420  39.6449020
  17.6167960  59.9411940  39.1041460   2.2605670  69.4770760  53.2585130
   2.2175300  69.1063670  54.1399590   2.3916680  70.4148330  53.3986950
   5.9611700  71.0330350  48.8594850   5.7203060  71.3004910  47.9725370
   6.9014340  71.2036080  48.9145710   8.1666120  57.4963040  52.6151360
   8.1055010  58.0884870  53.3646770   9.1066500  57.3889000  52.4701620
  10.8040680  57.1533100  52.2543650  11.4181090  57.4712390  51.5924730
  11.3490240  56.6681690  52.8739510  11.5448720  55.7165240  48.5812940
  10.6708560  56.0500350  48.3785870  11.4359470  55.2438420  49.4064810
  12.4520700  57.9236110  49.9654660  12.1234060  57.1087870  49.5856390
  13.4003000  57.8805920  49.8420350   9.2923540  56.6335080  47.5205850
   8.5095330  57.1080580  47.8002610   8.9986470  55.7289910  47.4119030
  13.8444610  57.3358180  45.5654940  14.2852700  57.2803280  44.7176540
  13.5752200  58.2516190  45.6365120  15.7083180  56.9673420  43.5763760
  15.6471580  56.0234640  43.4294780  16.4875210  57.0753510  44.1217220
   7.1777760  59.0521830  43.0321880   6.3652270  58.6778720  42.6917760
   7.6819400  58.2966910  43.3343070  11.6802740  55.7164280  44.2704950
  12.2832110  56.2884490  44.7453470  10.9395730  56.2803720  44.0478850
  14.8237340  56.1185840  39.5445230  15.0187970  57.0169290  39.8112660
  14.0367210  55.8872920  40.0378180   3.0089100  57.4646610  38.5821540
   3.5381860  56.6776410  38.4529490   3.6417420  58.1437800  38.8157070
   5.2026940  57.2021750  41.6366930   4.5729680  56.5009060  41.8037060
   4.6632080  57.9625880  41.4200090   5.3282500  56.4805730  54.0719420
   5.0466770  56.9839330  53.3080240   5.7102200  55.6827480  53.7061550
   3.3806390  69.8646120  38.8633430   2.7515270  70.3331220  39.4119260
   3.4954220  69.0195340  39.2979620  11.9297960  55.8959310  54.6499890
  11.8163410  56.2153920  55.5451410  12.7467700  56.2971820  54.3537170
  10.8356110  63.9151780  25.0134630  10.7550160  63.0006390  24.7426340
  10.4220530  64.4118850  24.3074340   8.9674150  65.6930800  26.8943900
   8.1916250  65.2131240  27.1842470   9.6187080  65.0136450  26.7200060
   2.9839980  66.0050610  27.7719660   2.1524860  65.7499320  28.1716170
   3.5920960  66.0761380  28.5077580  12.9881580  70.0990990  25.6743030
  12.5263110  69.3278230  26.0030200  13.8007130  70.1257060  26.1795480
   2.9641240  70.0390700  27.9677680   3.2669280  69.1488440  27.7887900
   3.7084830  70.5960920  27.7399930   8.4083140  68.3687990  26.9014060
   8.3391420  67.4277930  26.7403190   9.1703000  68.4589400  27.4736630
   9.4388310  61.1758370  27.1282990   9.8153130  60.3030250  27.0156660
   9.3407820  61.5117070  26.2373430   3.5693320  59.5484000  22.5900430
   3.6760070  60.4487730  22.8969190   2.6585680  59.5001970  22.2995080
  13.2212430  58.6708810  24.0611330  14.0422050  58.1805380  24.1036810
  13.2546510  59.2606470  24.8143170   5.4101050  62.5170370  26.9225610
   5.9179270  63.0151340  27.5630630   5.9414290  61.7405570  26.7464970
  17.5111980  60.6875560  30.6254960  16.8064150  61.0757270  30.1070070
  17.7769900  61.3825850  31.2275890   3.6937150  57.1568930  31.1889030
   3.6955590  57.6741320  30.3834930   2.8641460  56.6799110  31.1658960
  10.0808240  67.2688240  22.6878930   9.4625510  67.7337690  22.1241650
  10.5931490  67.9615720  23.1048440   4.9440000  66.7964110  29.3662530
   4.6109380  67.4233030  30.0083600   5.1206680  67.3225990  28.5864200
  13.4573910  60.6109190  26.8338870  12.7529480  60.8994080  27.4141980
  13.8186070  61.4209300  26.4738430   3.3752480  58.8678890  29.1959480
   3.7169290  59.7120940  28.9013350   2.4368290  59.0162630  29.3124820
   4.1559100  68.7644910  31.1811710   4.7733100  69.4395990  30.8996160
   3.2952220  69.1732890  31.0899210  15.0736690  70.2284320  29.0966350
  14.3900210  70.8983430  29.0883020  15.6130980  70.4264970  28.3311210
  16.5260830  60.0563980  27.2248080  15.5785740  60.0902960  27.3563510
  16.8510820  60.8702930  27.6097440   7.0580370  56.3561160  25.5204070
   7.3655350  55.8008050  24.8039570   6.1281070  56.4905620  25.3377060
  13.9040850  68.7944670  22.9001700  13.7937180  67.8519000  23.0251120
  13.9009100  69.1560310  23.7864460  12.0080870  66.9758290  29.1394140
  12.4249660  66.7618400  28.3047600  12.7320690  67.2331080  29.7102760
   9.4461130  64.4209990  22.2564190   8.5190410  64.3547370  22.4852660
   9.5985950  65.3590120  22.1419430   9.4330210  60.6926990  19.2531350
   8.4933880  60.8540950  19.3383810   9.7513470  61.4112670  18.7067340
  15.9542970  65.3745510  29.2310380  15.1261600  65.4438600  28.7560510
  16.5493450  65.9599820  28.7626210  13.4758420  65.9830290  22.7599440
  12.8570840  65.6449840  22.1125740  13.4582870  65.3390050  23.4678630
  12.9184980  62.1614830  30.1765250  12.5056160  62.9868540  30.4305240
  12.1860930  61.5759870  29.9841610   5.0517770  64.9474730  25.0383920
   4.6474770  64.2351980  24.5429820   5.1380890  64.6027970  25.9271960
   5.5199470  68.6342290  27.2023130   5.2227760  68.0287760  26.5230910
   6.4699290  68.6719600  27.0912490   3.7646390  61.7217940  28.8182960
   4.3160980  61.8313280  28.0436210   4.2789900  62.0955540  29.5338190
   4.6117900  68.3723980  33.8530930   3.7146430  68.5963950  34.1004330
   4.6370770  68.4958920  32.9042330  11.6523120  65.2217100  19.7672190
  12.0916400  64.3839530  19.6210010  12.3651540  65.8546500  19.8536330
   3.4389120  65.2437300  32.4288300   3.2996890  66.1160100  32.7975700
   2.5570480  64.9010110  32.2836240   9.7618500  70.1613170  23.7353430
  10.2014410  70.9037500  23.3208820   9.7005390  70.4039740  24.6592390
  15.2340260  56.4759910  18.0813230  14.9212920  56.5686740  18.9812300
  15.9952730  57.0540940  18.0310660  16.5917540  69.1598950  33.0937630
  16.7180600  68.9210830  32.1754810  16.6338920  68.3283490  33.5659710
  12.1314810  70.6569850  19.6514440  11.4379970  70.6547140  18.9916720
  12.8737670  70.2329170  19.2208610  16.4441550  61.2131410  34.0587370
  15.8285820  61.7211080  33.5302830  16.1237970  60.3129740  34.0013310
   4.2186060  57.1854780  25.9214240   3.7754210  57.9664320  25.5898760
   4.7771050  57.5084670  26.6285180   8.5055870  60.0523300  31.5249560
   8.0435240  60.2606320  32.3369500   8.1033980  59.2382650  31.2220230
  13.5060380  61.2732250  32.6546220  12.6553970  60.9738000  32.9755290
  13.3462170  61.5174260  31.7430040  10.6010090  62.7734000  34.7545010
  10.9263500  61.9397750  34.4147240  11.3890420  63.2962520  34.9023340
   7.3344880  56.8065480  20.8020070   6.7099060  56.8025350  21.5273380
   7.2475000  55.9396440  20.4056040   6.2561960  57.7302110  27.7803840
   6.5534290  58.6364940  27.6995860   6.8047520  57.2420890  27.1663410
   4.0100280  62.3088350  23.6495490   3.7841200  62.0925520  24.5542110
   3.2292810  62.7416810  23.3041460  11.2398040  62.3151720  22.2486140
  10.6406930  63.0387520  22.0649760  11.7877650  62.2528500  21.4662590
   6.4499490  63.2073930  34.3155760   6.3543090  62.2668660  34.1656160
   7.2931470  63.4289000  33.9203830   9.8462910  60.9515260  24.2789420
  10.2392480  61.2687460  23.4658110  10.2079760  60.0727140  24.3933940
   8.1555080  59.7022570  35.5386280   7.4653400  59.5094770  36.1732370
   8.8987380  59.9857210  36.0710580  10.4318050  63.5421010  28.3740200
   9.6999170  64.0507820  28.7230300  10.0342390  62.7250990  28.0728980
   6.8695440  60.2175210  26.7792690   6.8731500  59.7765160  25.9297230
   7.7646560  60.5392540  26.8864510   2.7197820  60.1001700  25.7386900
   2.3797870  60.5776930  26.4953950   1.9575140  59.6466820  25.3788000
   6.9315590  61.2187290  19.7699450   7.0528410  61.1773770  20.7185270
   6.5464100  62.0811440  19.6146180  10.8943960  58.9954690  27.7863140
  10.9116700  59.4463340  28.6304990  10.6459540  58.0960330  27.9996580
   5.9437090  63.5288430  19.1682750   5.3753990  63.0806680  18.5418660
   6.6526090  63.8881210  18.6347900  14.3214710  56.4086870  33.6249520
  14.6460480  55.6776530  34.1507500  14.3571220  56.0900510  32.7230510
   7.1703410  64.2776990  28.5258100   7.5373540  63.8035560  29.2719440
   6.9808470  65.1518560  28.8666440   4.9602780  63.3185630  30.8442310
   4.6559850  64.1977610  31.0692670   5.9149240  63.3785420  30.8799750
   3.4884570  67.5246620  21.4409160   2.7146830  66.9844240  21.2807880
   4.2179200  67.0053230  21.1026920  14.2472550  66.5211980  27.2335550
  14.9671670  67.0167270  26.8431660  14.0454370  65.8429870  26.5889420
   9.7082490  57.9149940  21.3764940   8.8947100  57.4163110  21.3010250
   9.5144440  58.7548190  20.9601290   9.6291350  66.5921040  33.1204550
   9.5628660  65.6716710  32.8662140   8.9996490  66.6896480  33.8349190
  12.4230880  62.2869590  19.6727100  13.3110500  62.5986820  19.4978440
  12.3935970  61.4141840  19.2807680   3.5321970  67.1927000  25.0787970
   4.0500640  66.3895260  25.0244860   3.0805990  67.1306140  25.9204800
   8.4191470  68.4593280  20.3515270   8.7607170  69.2035510  19.8558590
   7.5904180  68.7724400  20.7140100   4.2179630  64.6172610  34.8753220
   3.9179770  64.7629790  33.9781040   4.9890870  64.0577900  34.7826610
   9.5608080  69.4141610  32.8708350   9.5752620  68.4822570  32.6527260
   8.8533180  69.5001370  33.5098120  14.6945150  63.5981430  19.1406960
  14.6108870  64.0295650  18.2903400  15.4139340  64.0579780  19.5733780
  15.7719290  66.0548950  32.2176930  15.0467480  66.6477730  32.0206320
  16.2994750  66.0472490  31.4190300  15.7232400  70.4523690  21.8689090
  15.0808560  69.7979310  22.1432810  15.3363060  70.8578780  21.0929760
  11.3018880  67.7809120  25.7160780  11.6542700  67.1837250  25.0562150
  10.4181210  67.4553350  25.8869030   7.3882160  68.5406810  23.1231190
   8.0753290  69.0876020  23.5038780   6.6014580  69.0847540  23.1580800
   6.6909370  65.5452840  22.7356550   7.1472150  66.3558090  22.9616740
   6.3397580  65.2275980  23.5675040   8.9941980  71.0559180  29.9648850
   9.6384200  71.2618560  30.6422270   9.3571420  70.2947580  29.5119700
   2.5921150  55.8890490  23.2079070   2.4635780  55.8808390  24.1563990
   1.7683170  56.2273580  22.8570080  10.2674060  69.0591530  28.6826300
  10.9096290  68.3584690  28.7958470  10.7923410  69.8389970  28.5023190
  14.1129780  69.3440150  18.4065440  13.8867360  68.6270590  18.9990080
  13.7225980  69.0952590  17.5687190  12.0411680  69.8586430  31.8862360
  12.3767920  70.4453120  32.5640280  11.1212020  69.7279140  32.1160150
  13.6946030  67.2612090  20.0679600  13.4067730  67.7224780  20.8557480
  14.4898200  66.8009860  20.3363820   7.8700260  69.9077760  35.0550420
   7.5497130  69.1887000  35.5996110   7.1958620  70.5832830  35.1286480
   5.9114430  70.7538210  19.9983570   5.9024530  71.4867900  19.3828080
   4.9912790  70.5069790  20.0910530  11.0853860  60.1403920  30.4187220
  11.4534680  59.3199130  30.7466790  10.2252060  60.2005810  30.8342870
  14.4515890  59.0960860  21.2274780  13.8229050  59.2006530  20.5133010
  13.9567810  59.3157640  22.0168660   8.8974030  70.8166450  18.6608760
   8.9986010  70.6130440  17.7310740   7.9975770  70.5624730  18.8656540
   6.4199920  61.3746810  22.6432660   5.7116070  61.8433150  23.0846270
   6.7044400  60.7168820  23.2777850   8.0455850  62.7943510  30.6425190
   8.5441100  63.2689330  31.3077040   8.1878800  61.8707030  30.8495220
  10.4515350  58.0997470  24.0828450  10.3283130  58.1183600  23.1337960
  11.3999910  58.1476410  24.2026850   4.6234940  59.6831890  20.0183370
   5.4725470  60.1202040  19.9523560   4.2566210  59.9952150  20.8455430
  15.2522710  59.0111470  31.4853580  14.7496310  59.7516870  31.8247390
  16.0679370  59.3995470  31.1690370  13.5444720  64.2544650  24.9314940
  12.6034860  64.2694880  25.1062630  13.8588790  63.4680610  25.3775240
   3.5226360  65.9364250  18.4918900   4.2889630  65.8245610  19.0544330
   3.6001050  65.2402220  17.8395670   2.2173120  63.3689320  19.1751790
   2.2976710  62.4216830  19.2869190   3.1092870  63.6996200  19.2812450
  10.8610740  68.8110650  35.4147320  10.2548900  68.8342250  34.6743070
  10.5564850  68.0793690  35.9514570   6.6467540  67.9118430  17.9654250
   6.5418180  67.2970780  18.6915630   6.4791760  67.3884320  17.1817260
   6.7981860  66.5975230  33.9443480   6.0327530  67.1660230  33.8598150
   6.9797820  66.3051440  33.0511710   9.8870270  66.9738460  18.5696240
   9.3380370  67.4207760  19.2138980  10.5089530  66.4687710  19.0933910
  13.9405210  68.3280560  34.5018500  14.6814680  68.6656320  33.9985960
  13.1777890  68.4972620  33.9488270   1.7767000  63.3333830  35.3058030
   1.8172340  63.0347700  36.2143260   2.6312500  63.7341440  35.1465550
   5.5545390  65.9329380  20.4661540   5.9761810  65.7669250  21.3092930
   5.6796230  65.1229610  19.9716680   3.7172810  61.9125930  33.2732520
   3.1869270  61.4216880  32.6455860   4.3860880  62.3410130  32.7390450
   8.0673030  64.9566990  17.7138640   8.5878690  64.2416010  17.3479790
   8.7141430  65.5952860  18.0139150  12.6150870  66.3795390  33.0373710
  13.0291890  66.5340470  33.8864130  11.6801870  66.5050610  33.1999490
  13.0873040  63.7191550  35.0412860  13.6693810  62.9643870  34.9533340
  13.2634810  64.2498990  34.2644340   4.2045110  58.8788300  33.3529810
   4.1101980  58.2609050  32.6280680   3.6242500  59.6054590  33.1259720
   6.9706550  57.4361540  30.3857200   6.5223850  57.4585800  29.5402750
   6.3371750  57.0380560  30.9827500   7.3766100  66.3315870  31.0069640
   7.7954210  67.1748600  30.8345880   6.4574730  66.4687910  30.7776420
   9.7130000  64.0632050  32.3907480   9.8326210  63.4673190  33.1302320
  10.5724000  64.1001740  31.9708780  12.0517900  64.6169240  30.9669990
  11.5253120  65.1411860  30.3635130  12.3949240  65.2496630  31.5979720
   4.4504290  62.0062610  17.4119700   4.2493350  61.1429970  17.7733040
   4.2796340  61.9195970  16.4741300   6.4798770  60.6053400  33.6483300
   7.0698460  60.2969250  34.3361120   5.6619010  60.1333150  33.8043200
  11.2992200  60.2219210  33.8816320  10.6107720  59.5600750  33.8166310
  12.0198220  59.7757480  34.3264780  11.9292600  56.8170840  19.9406580
  12.2094890  55.9738740  20.2966000  11.1558330  57.0493950  20.4545330
   3.2487090  59.1063230  17.3997580   3.5512990  59.1130660  16.4916730
   3.9881680  58.7561090  17.8965240   6.4672020  58.0497850  18.3853780
   6.1194020  57.3721840  17.8056230   6.6684790  57.5887360  19.1997170
   2.2717220  68.4105650  18.2327380   2.7092090  68.9535320  18.8884960
   2.7564950  67.5852600  18.2423720   4.0824940  69.5303690  23.3449610
   3.7820480  69.4068660  24.2453520   3.9762430  68.6712280  22.9365340
  16.8516860  69.3100090  18.0476290  16.0209820  69.3776740  18.5183520
  17.0288690  70.2004210  17.7443150  16.3073320  66.0547570  20.5510490
  17.0692230  66.6244220  20.6570180  16.3227690  65.4874770  21.3218800
  17.3133290  66.9097670  25.3952420  17.6842120  66.1264990  24.9888390
  17.9535220  67.5986770  25.2169720  14.2967050  68.2934250  30.8082740
  13.4826890  68.7231410  31.0708530  14.7041250  68.9052660  30.1951790
  16.3592490  66.3481940  17.7083010  16.6341330  67.2560820  17.5802230
  16.1703230  66.2844470  18.6445000  12.7568100  59.3726790  19.0036640
  13.1752980  59.1857770  18.1633300  12.4504160  58.5205840  19.3139570
  16.2557830  64.2850930  22.7012440  15.8801430  63.5178860  22.2693730
  15.5260950  64.6673630  23.1887370  15.6457450  63.4322450  32.3351960
  15.4143540  63.2035200  31.4349910  15.9062000  64.3522000  32.2896850
  14.0845520  58.6578880  35.1131660  14.9615700  58.6662280  35.4965660
  14.0966360  57.9209720  34.5024010  15.5308790  62.5108420  26.0019680
  16.0546270  62.0171070  25.3709850  16.1168210  62.6458780  26.7467250
  15.7098510  62.5948290  29.5239230  14.7601220  62.5611830  29.6384220
  15.8911520  63.5048400  29.2889000  15.0208760  61.7681770  21.9412090
  15.5167880  61.5352640  22.7260970  14.8224830  60.9293610  21.5249730
  16.4495920  60.4042720  24.4749770  16.3395200  60.2498760  25.4132040
  17.2103510  59.8763660  24.2325180  14.7961640  56.3436850  30.9332770
  15.4333860  56.9570990  31.2991960  14.9436530  56.3797510  29.9882000
  17.3386190  58.2350640  17.7155910  18.2635500  58.1031820  17.5074200
  17.3161980  58.3143460  18.6692360  17.4124680  59.0061300  20.3412620
  16.6176180  58.9406420  20.8705530  17.6167960  59.9411940  20.3297970
   2.2605670  69.4770760  34.4841640   2.2175300  69.1063670  35.3656100
   2.3916680  70.4148330  34.6243460   5.9611700  71.0330350  30.0851360
   5.7203060  71.3004910  29.1981880   6.9014340  71.2036080  30.1402220
   8.1666120  57.4963040  33.8407870   8.1055010  58.0884870  34.5903280
   9.1066500  57.3889000  33.6958130  10.8040680  57.1533100  33.4800160
  11.4181090  57.4712390  32.8181240  11.3490240  56.6681690  34.0996020
  11.5448720  55.7165240  29.8069450  10.6708560  56.0500350  29.6042380
  11.4359470  55.2438420  30.6321320  12.4520700  57.9236110  31.1911170
  12.1234060  57.1087870  30.8112900  13.4003000  57.8805920  31.0676860
   9.2923540  56.6335080  28.7462360   8.5095330  57.1080580  29.0259120
   8.9986470  55.7289910  28.6375540  13.8444610  57.3358180  26.7911450
  14.2852700  57.2803280  25.9433050  13.5752200  58.2516190  26.8621630
  15.7083180  56.9673420  24.8020270  15.6471580  56.0234640  24.6551290
  16.4875210  57.0753510  25.3473730   7.1777760  59.0521830  24.2578390
   6.3652270  58.6778720  23.9174270   7.6819400  58.2966910  24.5599580
  11.6802740  55.7164280  25.4961460  12.2832110  56.2884490  25.9709980
  10.9395730  56.2803720  25.2735360  14.8237340  56.1185840  20.7701740
  15.0187970  57.0169290  21.0369170  14.0367210  55.8872920  21.2634690
   3.0089100  57.4646610  19.8078050   3.5381860  56.6776410  19.6786000
   3.6417420  58.1437800  20.0413580   5.2026940  57.2021750  22.8623440
   4.5729680  56.5009060  23.0293570   4.6632080  57.9625880  22.6456600
   5.3282500  56.4805730  35.2975930   5.0466770  56.9839330  34.5336750
   5.7102200  55.6827480  34.9318060   3.3806390  69.8646120  20.0889940
   2.7515270  70.3331220  20.6375770   3.4954220  69.0195340  20.5236130
  11.9297960  55.8959310  35.8756400  11.8163410  56.2153920  36.7707920
  12.7467700  56.2971820  35.5793680  10.8356110  63.9151780   6.2391140
  10.7550160  63.0006390   5.9682850  10.4220530  64.4118850   5.5330850
   8.9674150  65.6930800   8.1200410   8.1916250  65.2131240   8.4098980
   9.6187080  65.0136450   7.9456570   2.9839980  66.0050610   8.9976170
   2.1524860  65.7499320   9.3972680   3.5920960  66.0761380   9.7334090
  12.9881580  70.0990990   6.8999540  12.5263110  69.3278230   7.2286710
  13.8007130  70.1257060   7.4051990   2.9641240  70.0390700   9.1934190
   3.2669280  69.1488440   9.0144410   3.7084830  70.5960920   8.9656440
   8.4083140  68.3687990   8.1270570   8.3391420  67.4277930   7.9659700
   9.1703000  68.4589400   8.6993140   9.4388310  61.1758370   8.3539500
   9.8153130  60.3030250   8.2413170   9.3407820  61.5117070   7.4629940
   3.5693320  59.5484000   3.8156940   3.6760070  60.4487730   4.1225700
   2.6585680  59.5001970   3.5251590  13.2212430  58.6708810   5.2867840
  14.0422050  58.1805380   5.3293320  13.2546510  59.2606470   6.0399680
   5.4101050  62.5170370   8.1482120   5.9179270  63.0151340   8.7887140
   5.9414290  61.7405570   7.9721480  17.5111980  60.6875560  11.8511470
  16.8064150  61.0757270  11.3326580  17.7769900  61.3825850  12.4532400
   3.6937150  57.1568930  12.4145540   3.6955590  57.6741320  11.6091440
   2.8641460  56.6799110  12.3915470  10.0808240  67.2688240   3.9135440
   9.4625510  67.7337690   3.3498160  10.5931490  67.9615720   4.3304950
   4.9440000  66.7964110  10.5919040   4.6109380  67.4233030  11.2340110
   5.1206680  67.3225990   9.8120710  13.4573910  60.6109190   8.0595380
  12.7529480  60.8994080   8.6398490  13.8186070  61.4209300   7.6994940
   3.3752480  58.8678890  10.4215990   3.7169290  59.7120940  10.1269860
   2.4368290  59.0162630  10.5381330   4.1559100  68.7644910  12.4068220
   4.7733100  69.4395990  12.1252670   3.2952220  69.1732890  12.3155720
  15.0736690  70.2284320  10.3222860  14.3900210  70.8983430  10.3139530
  15.6130980  70.4264970   9.5567720  16.5260830  60.0563980   8.4504590
  15.5785740  60.0902960   8.5820020  16.8510820  60.8702930   8.8353950
   7.0580370  56.3561160   6.7460580   7.3655350  55.8008050   6.0296080
   6.1281070  56.4905620   6.5633570  13.9040850  68.7944670   4.1258210
  13.7937180  67.8519000   4.2507630  13.9009100  69.1560310   5.0120970
  12.0080870  66.9758290  10.3650650  12.4249660  66.7618400   9.5304110
  12.7320690  67.2331080  10.9359270   9.4461130  64.4209990   3.4820700
   8.5190410  64.3547370   3.7109170   9.5985950  65.3590120   3.3675940
  15.9542970  65.3745510  10.4566890  15.1261600  65.4438600   9.9817020
  16.5493450  65.9599820   9.9882720  13.4758420  65.9830290   3.9855950
  12.8570840  65.6449840   3.3382250  13.4582870  65.3390050   4.6935140
  12.9184980  62.1614830  11.4021760  12.5056160  62.9868540  11.6561750
  12.1860930  61.5759870  11.2098120   5.0517770  64.9474730   6.2640430
   4.6474770  64.2351980   5.7686330   5.1380890  64.6027970   7.1528470
   5.5199470  68.6342290   8.4279640   5.2227760  68.0287760   7.7487420
   6.4699290  68.6719600   8.3169000   3.7646390  61.7217940  10.0439470
   4.3160980  61.8313280   9.2692720   4.2789900  62.0955540  10.7594700
   4.6117900  68.3723980  15.0787440   3.7146430  68.5963950  15.3260840
   4.6370770  68.4958920  14.1298840   3.4389120  65.2437300  13.6544810
   3.2996890  66.1160100  14.0232210   2.5570480  64.9010110  13.5092750
   9.7618500  70.1613170   4.9609940  10.2014410  70.9037500   4.5465330
   9.7005390  70.4039740   5.8848900  16.5917540  69.1598950  14.3194140
  16.7180600  68.9210830  13.4011320  16.6338920  68.3283490  14.7916220
  16.4441550  61.2131410  15.2843880  15.8285820  61.7211080  14.7559340
  16.1237970  60.3129740  15.2269820   4.2186060  57.1854780   7.1470750
   3.7754210  57.9664320   6.8155270   4.7771050  57.5084670   7.8541690
   8.5055870  60.0523300  12.7506070   8.0435240  60.2606320  13.5626010
   8.1033980  59.2382650  12.4476740  13.5060380  61.2732250  13.8802730
  12.6553970  60.9738000  14.2011800  13.3462170  61.5174260  12.9686550
  10.6010090  62.7734000  15.9801520  10.9263500  61.9397750  15.6403750
  11.3890420  63.2962520  16.1279850   6.2561960  57.7302110   9.0060350
   6.5534290  58.6364940   8.9252370   6.8047520  57.2420890   8.3919920
   4.0100280  62.3088350   4.8752000   3.7841200  62.0925520   5.7798620
   3.2292810  62.7416810   4.5297970  11.2398040  62.3151720   3.4742650
  10.6406930  63.0387520   3.2906270  11.7877650  62.2528500   2.6919100
   6.4499490  63.2073930  15.5412270   6.3543090  62.2668660  15.3912670
   7.2931470  63.4289000  15.1460340   9.8462910  60.9515260   5.5045930
  10.2392480  61.2687460   4.6914620  10.2079760  60.0727140   5.6190450
   8.1555080  59.7022570  16.7642790   7.4653400  59.5094770  17.3988880
   8.8987380  59.9857210  17.2967090  10.4318050  63.5421010   9.5996710
   9.6999170  64.0507820   9.9486810  10.0342390  62.7250990   9.2985490
   6.8695440  60.2175210   8.0049200   6.8731500  59.7765160   7.1553740
   7.7646560  60.5392540   8.1121020   2.7197820  60.1001700   6.9643410
   2.3797870  60.5776930   7.7210460   1.9575140  59.6466820   6.6044510
  10.8943960  58.9954690   9.0119650  10.9116700  59.4463340   9.8561500
  10.6459540  58.0960330   9.2253090  14.3214710  56.4086870  14.8506030
  14.6460480  55.6776530  15.3764010  14.3571220  56.0900510  13.9487020
   7.1703410  64.2776990   9.7514610   7.5373540  63.8035560  10.4975950
   6.9808470  65.1518560  10.0922950   4.9602780  63.3185630  12.0698820
   4.6559850  64.1977610  12.2949180   5.9149240  63.3785420  12.1056260
   3.4884570  67.5246620   2.6665670   2.7146830  66.9844240   2.5064390
   4.2179200  67.0053230   2.3283430  14.2472550  66.5211980   8.4592060
  14.9671670  67.0167270   8.0688170  14.0454370  65.8429870   7.8145930
   9.7082490  57.9149940   2.6021450   8.8947100  57.4163110   2.5266760
   9.5144440  58.7548190   2.1857800   9.6291350  66.5921040  14.3461060
   9.5628660  65.6716710  14.0918650   8.9996490  66.6896480  15.0605700
   3.5321970  67.1927000   6.3044480   4.0500640  66.3895260   6.2501370
   3.0805990  67.1306140   7.1461310   4.2179630  64.6172610  16.1009730
   3.9179770  64.7629790  15.2037550   4.9890870  64.0577900  16.0083120
   9.5608080  69.4141610  14.0964860   9.5752620  68.4822570  13.8783770
   8.8533180  69.5001370  14.7354630  15.7719290  66.0548950  13.4433440
  15.0467480  66.6477730  13.2462830  16.2994750  66.0472490  12.6446810
  15.7232400  70.4523690   3.0945600  15.0808560  69.7979310   3.3689320
  15.3363060  70.8578780   2.3186270  11.3018880  67.7809120   6.9417290
  11.6542700  67.1837250   6.2818660  10.4181210  67.4553350   7.1125540
   7.3882160  68.5406810   4.3487700   8.0753290  69.0876020   4.7295290
   6.6014580  69.0847540   4.3837310   6.6909370  65.5452840   3.9613060
   7.1472150  66.3558090   4.1873250   6.3397580  65.2275980   4.7931550
   8.9941980  71.0559180  11.1905360   9.6384200  71.2618560  11.8678780
   9.3571420  70.2947580  10.7376210   2.5921150  55.8890490   4.4335580
   2.4635780  55.8808390   5.3820500   1.7683170  56.2273580   4.0826590
  10.2674060  69.0591530   9.9082810  10.9096290  68.3584690  10.0214980
  10.7923410  69.8389970   9.7279700  12.0411680  69.8586430  13.1118870
  12.3767920  70.4453120  13.7896790  11.1212020  69.7279140  13.3416660
   7.8700260  69.9077760  16.2806930   7.5497130  69.1887000  16.8252620
   7.1958620  70.5832830  16.3542990  11.0853860  60.1403920  11.6443730
  11.4534680  59.3199130  11.9723300  10.2252060  60.2005810  12.0599380
  14.4515890  59.0960860   2.4531290  13.8229050  59.2006530   1.7389520
  13.9567810  59.3157640   3.2425170   6.4199920  61.3746810   3.8689170
   5.7116070  61.8433150   4.3102780   6.7044400  60.7168820   4.5034360
   8.0455850  62.7943510  11.8681700   8.5441100  63.2689330  12.5333550
   8.1878800  61.8707030  12.0751730  10.4515350  58.0997470   5.3084960
  10.3283130  58.1183600   4.3594470  11.3999910  58.1476410   5.4283360
  15.2522710  59.0111470  12.7110090  14.7496310  59.7516870  13.0503900
  16.0679370  59.3995470  12.3946880  13.5444720  64.2544650   6.1571450
  12.6034860  64.2694880   6.3319140  13.8588790  63.4680610   6.6031750
  10.8610740  68.8110650  16.6403830  10.2548900  68.8342250  15.8999580
  10.5564850  68.0793690  17.1771080   6.7981860  66.5975230  15.1699990
   6.0327530  67.1660230  15.0854660   6.9797820  66.3051440  14.2768220
  13.9405210  68.3280560  15.7275010  14.6814680  68.6656320  15.2242470
  13.1777890  68.4972620  15.1744780   1.7767000  63.3333830  16.5314540
   1.8172340  63.0347700  17.4399770   2.6312500  63.7341440  16.3722060
   3.7172810  61.9125930  14.4989030   3.1869270  61.4216880  13.8712370
   4.3860880  62.3410130  13.9646960  12.6150870  66.3795390  14.2630220
  13.0291890  66.5340470  15.1120640  11.6801870  66.5050610  14.4256000
  13.0873040  63.7191550  16.2669370  13.6693810  62.9643870  16.1789850
  13.2634810  64.2498990  15.4900850   4.2045110  58.8788300  14.5786320
   4.1101980  58.2609050  13.8537190   3.6242500  59.6054590  14.3516230
   6.9706550  57.4361540  11.6113710   6.5223850  57.4585800  10.7659260
   6.3371750  57.0380560  12.2084010   7.3766100  66.3315870  12.2326150
   7.7954210  67.1748600  12.0602390   6.4574730  66.4687910  12.0032930
   9.7130000  64.0632050  13.6163990   9.8326210  63.4673190  14.3558830
  10.5724000  64.1001740  13.1965290  12.0517900  64.6169240  12.1926500
  11.5253120  65.1411860  11.5891640  12.3949240  65.2496630  12.8236230
   6.4798770  60.6053400  14.8739810   7.0698460  60.2969250  15.5617630
   5.6619010  60.1333150  15.0299710  11.2992200  60.2219210  15.1072830
  10.6107720  59.5600750  15.0422820  12.0198220  59.7757480  15.5521290
   4.0824940  69.5303690   4.5706120   3.7820480  69.4068660   5.4710030
   3.9762430  68.6712280   4.1621850  16.3073320  66.0547570   1.7767000
  17.0692230  66.6244220   1.8826690  16.3227690  65.4874770   2.5475310
  17.3133290  66.9097670   6.6208930  17.6842120  66.1264990   6.2144900
  17.9535220  67.5986770   6.4426230  14.2967050  68.2934250  12.0339250
  13.4826890  68.7231410  12.2965040  14.7041250  68.9052660  11.4208300
  16.2557830  64.2850930   3.9268950  15.8801430  63.5178860   3.4950240
  15.5260950  64.6673630   4.4143880  15.6457450  63.4322450  13.5608470
  15.4143540  63.2035200  12.6606420  15.9062000  64.3522000  13.5153360
  14.0845520  58.6578880  16.3388170  14.9615700  58.6662280  16.7222170
  14.0966360  57.9209720  15.7280520  15.5308790  62.5108420   7.2276190
  16.0546270  62.0171070   6.5966360  16.1168210  62.6458780   7.9723760
  15.7098510  62.5948290  10.7495740  14.7601220  62.5611830  10.8640730
  15.8911520  63.5048400  10.5145510  15.0208760  61.7681770   3.1668600
  15.5167880  61.5352640   3.9517480  14.8224830  60.9293610   2.7506240
  16.4495920  60.4042720   5.7006280  16.3395200  60.2498760   6.6388550
  17.2103510  59.8763660   5.4581690  14.7961640  56.3436850  12.1589280
  15.4333860  56.9570990  12.5248470  14.9436530  56.3797510  11.2138510
   2.2605670  69.4770760  15.7098150   2.2175300  69.1063670  16.5912610
   2.3916680  70.4148330  15.8499970   5.9611700  71.0330350  11.3107870
   5.7203060  71.3004910  10.4238390   6.9014340  71.2036080  11.3658730
   8.1666120  57.4963040  15.0664380   8.1055010  58.0884870  15.8159790
   9.1066500  57.3889000  14.9214640  10.8040680  57.1533100  14.7056670
  11.4181090  57.4712390  14.0437750  11.3490240  56.6681690  15.3252530
  11.5448720  55.7165240  11.0325960  10.6708560  56.0500350  10.8298890
  11.4359470  55.2438420  11.8577830  12.4520700  57.9236110  12.4167680
  12.1234060  57.1087870  12.0369410  13.4003000  57.8805920  12.2933370
   9.2923540  56.6335080   9.9718870   8.5095330  57.1080580  10.2515630
   8.9986470  55.7289910   9.8632050  13.8444610  57.3358180   8.0167960
  14.2852700  57.2803280   7.1689560  13.5752200  58.2516190   8.0878140
  15.7083180  56.9673420   6.0276780  15.6471580  56.0234640   5.8807800
  16.4875210  57.0753510   6.5730240   7.1777760  59.0521830   5.4834900
   6.3652270  58.6778720   5.1430780   7.6819400  58.2966910   5.7856090
  11.6802740  55.7164280   6.7217970  12.2832110  56.2884490   7.1966490
  10.9395730  56.2803720   6.4991870  14.8237340  56.1185840   1.9958250
  15.0187970  57.0169290   2.2625680  14.0367210  55.8872920   2.4891200
   5.2026940  57.2021750   4.0879950   4.5729680  56.5009060   4.2550080
   4.6632080  57.9625880   3.8713110   5.3282500  56.4805730  16.5232440
   5.0466770  56.9839330  15.7593260   5.7102200  55.6827480  16.1574570
  11.9297960  55.8959310  17.1012910  11.8163410  56.2153920  17.9964430
  12.7467700  56.2971820  16.8050190  10.8356110  45.1408290  62.5621610
  10.7550160  44.2262900  62.2913320  10.4220530  45.6375360  61.8561320
   8.9674150  46.9187310  64.4430880   8.1916250  46.4387750  64.7329450
   9.6187080  46.2392960  64.2687040   2.9839980  47.2307120  65.3206640
   2.1524860  46.9755830  65.7203150   3.5920960  47.3017890  66.0564560
  12.9881580  51.3247500  63.2230010  12.5263110  50.5534740  63.5517180
  13.8007130  51.3513570  63.7282460   2.9641240  51.2647210  65.5164660
   3.2669280  50.3744950  65.3374880   3.7084830  51.8217430  65.2886910
   9.2144890  53.6105510  62.8434000   8.5956330  54.0663010  62.2728440
  10.0696670  53.7656970  62.4423700   8.4083140  49.5944500  64.4501040
   8.3391420  48.6534440  64.2890170   9.1703000  49.6845910  65.0223610
   9.4388310  42.4014880  64.6769970   9.8153130  41.5286760  64.5643640
   9.3407820  42.7373580  63.7860410   3.5693320  40.7740510  60.1387410
   3.6760070  41.6744240  60.4456170   2.6585680  40.7258480  59.8482060
  13.2212430  39.8965320  61.6098310  14.0422050  39.4061890  61.6523790
  13.2546510  40.4862980  62.3630150   5.4101050  43.7426880  64.4712590
   5.9179270  44.2407850  65.1117610   5.9414290  42.9662080  64.2951950
  17.5111980  41.9132070  68.1741940  16.8064150  42.3013780  67.6557050
  17.7769900  42.6082360  68.7762870   3.6937150  38.3825440  68.7376010
   3.6955590  38.8997830  67.9321910   2.8641460  37.9055620  68.7145940
  10.0808240  48.4944750  60.2365910   9.4625510  48.9594200  59.6728630
  10.5931490  49.1872230  60.6535420   4.9440000  48.0220620  66.9149510
   4.6109380  48.6489540  67.5570580   5.1206680  48.5482500  66.1351180
  13.4573910  41.8365700  64.3825850  12.7529480  42.1250590  64.9628960
  13.8186070  42.6465810  64.0225410   3.3752480  40.0935400  66.7446460
   3.7169290  40.9377450  66.4500330   2.4368290  40.2419140  66.8611800
   4.1559100  49.9901420  68.7298690   4.7733100  50.6652500  68.4483140
   3.2952220  50.3989400  68.6386190  15.0736690  51.4540830  66.6453330
  14.3900210  52.1239940  66.6370000  15.6130980  51.6521480  65.8798190
  16.5260830  41.2820490  64.7735060  15.5785740  41.3159470  64.9050490
  16.8510820  42.0959440  65.1584420   7.0580370  37.5817670  63.0691050
   7.3655350  37.0264560  62.3526550   6.1281070  37.7162130  62.8864040
  12.6095430  53.2984960  65.3598510  12.6222590  52.8947250  64.4920770
  12.0570650  54.0732250  65.2559940  13.9040850  50.0201180  60.4488680
  13.7937180  49.0775510  60.5738100  13.9009100  50.3816820  61.3351440
  12.0080870  48.2014800  66.6881120  12.4249660  47.9874910  65.8534580
  12.7320690  48.4587590  67.2589740   9.4461130  45.6466500  59.8051170
   8.5190410  45.5803880  60.0339640   9.5985950  46.5846630  59.6906410
   9.4330210  41.9183500  56.8018330   8.4933880  42.0797460  56.8870790
   9.7513470  42.6369180  56.2554320  15.9542970  46.6002020  66.7797360
  15.1261600  46.6695110  66.3047490  16.5493450  47.1856330  66.3113190
  13.4758420  47.2086800  60.3086420  12.8570840  46.8706350  59.6612720
  13.4582870  46.5646560  61.0165610  12.9184980  43.3871340  67.7252230
  12.5056160  44.2125050  67.9792220  12.1860930  42.8016380  67.5328590
   5.0517770  46.1731240  62.5870900   4.6474770  45.4608490  62.0916800
   5.1380890  45.8284480  63.4758940   5.5199470  49.8598800  64.7510110
   5.2227760  49.2544270  64.0717890   6.4699290  49.8976110  64.6399470
   3.7646390  42.9474450  66.3669940   4.3160980  43.0569790  65.5923190
   4.2789900  43.3212050  67.0825170  13.6085080  53.4330670  68.4133210
  13.1315640  54.2402860  68.2205820  12.9246870  52.7809000  68.5659420
  11.6523120  46.4473610  57.3159170  12.0916400  45.6096040  57.1696990
  12.3651540  47.0803010  57.4023310   9.7618500  51.3869680  61.2840410
  10.2014410  52.1294010  60.8695800   9.7005390  51.6296250  62.2079370
  15.2340260  37.7016420  55.6300210  14.9212920  37.7943250  56.5299280
  15.9952730  38.2797450  55.5797640  10.4534280  54.0883460  69.2119420
  10.9678950  53.9991470  70.0141850   9.6103360  54.4343160  69.5047330
  12.4288680  54.3738800  58.6403420  12.2689820  54.0841740  59.5385250
  12.2635390  53.5978930  58.1048650   4.9077060  54.1537330  60.4175040
   4.7319540  53.2372870  60.2042840   4.0532800  54.5124620  60.6572840
  12.1314810  51.8826360  57.2001420  11.4379970  51.8803650  56.5403700
  12.8737670  51.4585680  56.7695590  11.6964740  53.5089070  61.2749910
  12.1521690  52.7278450  61.5888530  12.0357260  54.2195890  61.8191090
   4.2186060  38.4111290  63.4701220   3.7754210  39.1920830  63.1385740
   4.7771050  38.7341180  64.1772160   8.5055870  41.2779810  69.0736540
   8.0435240  41.4862830  69.8856480   8.1033980  40.4639160  68.7707210
   7.3344880  38.0321990  58.3507050   6.7099060  38.0281860  59.0760360
   7.2475000  37.1652950  57.9543020   6.2561960  38.9558620  65.3290820
   6.5534290  39.8621450  65.2482840   6.8047520  38.4677400  64.7150390
   4.0100280  43.5344860  61.1982470   3.7841200  43.3182030  62.1029090
   3.2292810  43.9673320  60.8528440  11.2398040  43.5408230  59.7973120
  10.6406930  44.2644030  59.6136740  11.7877650  43.4785010  59.0149570
   9.8462910  42.1771770  61.8276400  10.2392480  42.4943970  61.0145090
  10.2079760  41.2983650  61.9420920  10.4318050  44.7677520  65.9227180
   9.6999170  45.2764330  66.2717280  10.0342390  43.9507500  65.6215960
   6.8695440  41.4431720  64.3279670   6.8731500  41.0021670  63.4784210
   7.7646560  41.7649050  64.4351490   2.7197820  41.3258210  63.2873880
   2.3797870  41.8033440  64.0440930   1.9575140  40.8723330  62.9274980
   6.9315590  42.4443800  57.3186430   7.0528410  42.4030280  58.2672250
   6.5464100  43.3067950  57.1633160  10.8943960  40.2211200  65.3350120
  10.9116700  40.6719850  66.1791970  10.6459540  39.3216840  65.5483560
   5.9437090  44.7544940  56.7169730   5.3753990  44.3063190  56.0905640
   6.6526090  45.1137720  56.1834880   7.1703410  45.5033500  66.0745080
   7.5373540  45.0292070  66.8206420   6.9808470  46.3775070  66.4153420
   4.9602780  44.5442140  68.3929290   4.6559850  45.4234120  68.6179650
   5.9149240  44.6041930  68.4286730   3.4884570  48.7503130  58.9896140
   2.7146830  48.2100750  58.8294860   4.2179200  48.2309740  58.6513900
  14.2472550  47.7468490  64.7822530  14.9671670  48.2423780  64.3918640
  14.0454370  47.0686380  64.1376400   9.7082490  39.1406450  58.9251920
   8.8947100  38.6419620  58.8497230   9.5144440  39.9804700  58.5088270
  12.4230880  43.5126100  57.2214080  13.3110500  43.8243330  57.0465420
  12.3935970  42.6398350  56.8294660   3.5321970  48.4183510  62.6274950
   4.0500640  47.6151770  62.5731840   3.0805990  48.3562650  63.4691780
   8.4191470  49.6849790  57.9002250   8.7607170  50.4292020  57.4045570
   7.5904180  49.9980910  58.2627080  14.6945150  44.8237940  56.6893940
  14.6108870  45.2552160  55.8390380  15.4139340  45.2836290  57.1220760
  15.7719290  47.2805460  69.7663910  15.0467480  47.8734240  69.5693300
  16.2994750  47.2729000  68.9677280  15.7232400  51.6780200  59.4176070
  15.0808560  51.0235820  59.6919790  15.3363060  52.0835290  58.6416740
  11.3018880  49.0065630  63.2647760  11.6542700  48.4093760  62.6049130
  10.4181210  48.6809860  63.4356010   7.3882160  49.7663320  60.6718170
   8.0753290  50.3132530  61.0525760   6.6014580  50.3104050  60.7067780
   6.6909370  46.7709350  60.2843530   7.1472150  47.5814600  60.5103720
   6.3397580  46.4532490  61.1162020   8.9941980  52.2815690  67.5135830
   9.6384200  52.4875070  68.1909250   9.3571420  51.5204090  67.0606680
   2.5921150  37.1147000  60.7566050   2.4635780  37.1064900  61.7050970
   1.7683170  37.4530090  60.4057060  10.2674060  50.2848040  66.2313280
  10.9096290  49.5841200  66.3445450  10.7923410  51.0646480  66.0510170
  14.1129780  50.5696660  55.9552420  13.8867360  49.8527100  56.5477060
  13.7225980  50.3209100  55.1174170  12.0411680  51.0842940  69.4349340
  12.3767920  51.6709630  70.1127260  11.1212020  50.9535650  69.6647130
  13.6946030  48.4868600  57.6166580  13.4067730  48.9481290  58.4044460
  14.4898200  48.0266370  57.8850800   5.9114430  51.9794720  57.5470550
   5.9024530  52.7124410  56.9315060   4.9912790  51.7326300  57.6397510
  11.0853860  41.3660430  67.9674200  11.4534680  40.5455640  68.2953770
  10.2252060  41.4262320  68.3829850  14.4515890  40.3217370  58.7761760
  13.8229050  40.4263040  58.0619990  13.9567810  40.5414150  59.5655640
   8.8974030  52.0422960  56.2095740   8.9986010  51.8386950  55.2797720
   7.9975770  51.7881240  56.4143520   6.4199920  42.6003320  60.1919640
   5.7116070  43.0689660  60.6333250   6.7044400  41.9425330  60.8264830
   8.0455850  44.0200020  68.1912170   8.5441100  44.4945840  68.8564020
   8.1878800  43.0963540  68.3982200  10.4515350  39.3253980  61.6315430
  10.3283130  39.3440110  60.6824940  11.3999910  39.3732920  61.7513830
   7.5392140  54.5609280  60.9043410   7.7933640  54.5230670  59.9822780
   6.5904620  54.4342610  60.8971660   4.6234940  40.9088400  57.5670350
   5.4725470  41.3458550  57.5010540   4.2566210  41.2208660  58.3942410
  15.2522710  40.2367980  69.0340560  14.7496310  40.9773380  69.3734370
  16.0679370  40.6251980  68.7177350  13.5444720  45.4801160  62.4801920
  12.6034860  45.4951390  62.6549610  13.8588790  44.6937120  62.9262220
   3.5226360  47.1620760  56.0405880   4.2889630  47.0502120  56.6031310
   3.6001050  46.4658730  55.3882650   2.2173120  44.5945830  56.7238770
   2.2976710  43.6473340  56.8356170   3.1092870  44.9252710  56.8299430
  15.5470300  52.6510010  64.1556180  15.6717720  53.4741180  64.6279990
  16.4135860  52.4400740  63.8080330   3.0187830  54.7441220  63.8273310
   3.7550310  54.1956680  64.0981880   3.4028750  55.6097230  63.6879300
   6.1290140  53.9171530  55.6498880   6.9218750  54.2060360  55.1980670
   5.6094490  53.4863700  54.9711360  15.1820310  53.1441660  57.0735620
  14.8961820  52.7306800  56.2589800  14.9839860  54.0729370  56.9536140
   6.6467540  49.1374940  55.5141230   6.5418180  48.5227290  56.2402610
   6.4791760  48.6140830  54.7304240   9.8870270  48.1994970  56.1183220
   9.3380370  48.6464270  56.7625960  10.5089530  47.6944220  56.6420890
   5.5545390  47.1585890  58.0148520   5.9761810  46.9925760  58.8579910
   5.6796230  46.3486120  57.5203660   8.0673030  46.1823500  55.2625620
   8.5878690  45.4672520  54.8966770   8.7141430  46.8209370  55.5626130
   6.9706550  38.6618050  67.9344180   6.5223850  38.6842310  67.0889730
   6.3371750  38.2637070  68.5314480   7.3766100  47.5572380  68.5556620
   7.7954210  48.4005110  68.3832860   6.4574730  47.6944420  68.3263400
  12.0517900  45.8425750  68.5156970  11.5253120  46.3668370  67.9122110
  12.3949240  46.4753140  69.1466700   4.4504290  43.2319120  54.9606680
   4.2493350  42.3686480  55.3220020   4.2796340  43.1452480  54.0228280
   5.2273520  53.8625390  69.6714350   4.6894610  54.5871450  69.3523050
   5.4807480  53.3855730  68.8811690  11.9292600  38.0427350  57.4893560
  12.2094890  37.1995250  57.8452980  11.1558330  38.2750460  58.0032310
   3.2487090  40.3319740  54.9484560   3.5512990  40.3387170  54.0403710
   3.9881680  39.9817600  55.4452220   8.0835730  55.0976600  69.9301000
   8.0094430  56.0011740  70.2373370   7.1814570  54.7788500  69.9023070
   6.4672020  39.2754360  55.9340760   6.1194020  38.5978350  55.3543210
   6.6684790  38.8143870  56.7484150   8.6321060  54.2635110  57.5527360
   9.5271850  54.6020080  57.5746120   8.6638690  53.5414520  56.9251640
   2.2717220  49.6362160  55.7814360   2.7092090  50.1791830  56.4371940
   2.7564950  48.8109110  55.7910700   4.0824940  50.7560200  60.8936590
   3.7820480  50.6325170  61.7940500   3.9762430  49.8968790  60.4852320
  16.8516860  50.5356600  55.5963270  16.0209820  50.6033250  56.0670500
  17.0288690  51.4260720  55.2930130  16.3073320  47.2804080  58.0997470
  17.0692230  47.8500730  58.2057160  16.3227690  46.7131280  58.8705780
  17.3133290  48.1354180  62.9439400  17.6842120  47.3521500  62.5375370
  17.9535220  48.8243280  62.7656700  14.2967050  49.5190760  68.3569720
  13.4826890  49.9487920  68.6195510  14.7041250  50.1309170  67.7438770
  16.3592490  47.5738450  55.2569990  16.6341330  48.4817330  55.1289210
  16.1703230  47.5100980  56.1931980  12.7568100  40.5983300  56.5523620
  13.1752980  40.4114280  55.7120280  12.4504160  39.7462350  56.8626550
  16.2557830  45.5107440  60.2499420  15.8801430  44.7435370  59.8180710
  15.5260950  45.8930140  60.7374350  15.6457450  44.6578960  69.8838940
  15.4143540  44.4291710  68.9836890  15.9062000  45.5778510  69.8383830
  15.5308790  43.7364930  63.5506660  16.0546270  43.2427580  62.9196830
  16.1168210  43.8715290  64.2954230  15.7098510  43.8204800  67.0726210
  14.7601220  43.7868340  67.1871200  15.8911520  44.7304910  66.8375980
  15.0208760  42.9938280  59.4899070  15.5167880  42.7609150  60.2747950
  14.8224830  42.1550120  59.0736710  16.4495920  41.6299230  62.0236750
  16.3395200  41.4755270  62.9619020  17.2103510  41.1020170  61.7812160
  14.7961640  37.5693360  68.4819750  15.4333860  38.1827500  68.8478940
  14.9436530  37.6054020  67.5368980  17.3386190  39.4607150  55.2642890
  18.2635500  39.3288330  55.0561180  17.3161980  39.5399970  56.2179340
  17.4124680  40.2317810  57.8899600  16.6176180  40.1662930  58.4192510
  17.6167960  41.1668450  57.8784950  14.3543100  54.2709360  61.8837990
  14.9502170  53.9493930  61.2072410  14.6121250  53.7981180  62.6751260
   5.9611700  52.2586860  67.6338340   5.7203060  52.5261420  66.7468860
   6.9014340  52.4292590  67.6889200  17.2215860  54.2781240  68.4348980
  16.7274140  54.6750110  67.7176110  16.6129150  53.6530450  68.8286260
  11.5448720  36.9421750  67.3556430  10.6708560  37.2756860  67.1529360
  11.4359470  36.4694930  68.1808300  12.4520700  39.1492620  68.7398150
  12.1234060  38.3344380  68.3599880  13.4003000  39.1062430  68.6163840
  14.9055310  54.9204660  65.7135720  14.4458280  55.6720470  65.3393740
  14.2767770  54.2011130  65.6550520   5.3351030  53.2292900  64.8883850
   5.8516050  52.6180260  64.3632110   5.9848410  53.7321680  65.3794860
   8.0746530  54.1201390  65.7152830   8.3624340  53.8655690  64.8385840
   8.5869750  53.5678750  66.3058400   9.2923540  37.8591590  66.2949340
   8.5095330  38.3337090  66.5746100   8.9986470  36.9546420  66.1862520
  13.8444610  38.5614690  64.3398430  14.2852700  38.5059790  63.4920030
  13.5752200  39.4772700  64.4108610  15.7083180  38.1929930  62.3507250
  15.6471580  37.2491150  62.2038270  16.4875210  38.3010020  62.8960710
   7.1777760  40.2778340  61.8065370   6.3652270  39.9035230  61.4661250
   7.6819400  39.5223420  62.1086560  11.6802740  36.9420790  63.0448440
  12.2832110  37.5141000  63.5196960  10.9395730  37.5060230  62.8222340
  14.8237340  37.3442350  58.3188720  15.0187970  38.2425800  58.5856150
  14.0367210  37.1129430  58.8121670   3.0089100  38.6903120  57.3565030
   3.5381860  37.9032920  57.2272980   3.6417420  39.3694310  57.5900560
   5.2026940  38.4278260  60.4110420   4.5729680  37.7265570  60.5780550
   4.6632080  39.1882390  60.1943580  16.3763950  54.5843060  60.0795280
  16.5516140  53.8980800  59.4356200  15.6785520  55.1090110  59.6871950
   4.2191600  54.9737900  57.6330590   4.9510420  54.6897180  57.0854480
   4.4785270  54.7351180  58.5229970   3.3806390  51.0902630  57.6376920
   2.7515270  51.5587730  58.1862750   3.4954220  50.2451850  58.0723110
  10.8356110  45.1408290  43.7878120  10.7550160  44.2262900  43.5169830
  10.4220530  45.6375360  43.0817830   8.9674150  46.9187310  45.6687390
   8.1916250  46.4387750  45.9585960   9.6187080  46.2392960  45.4943550
   2.9839980  47.2307120  46.5463150   2.1524860  46.9755830  46.9459660
   3.5920960  47.3017890  47.2821070  12.9881580  51.3247500  44.4486520
  12.5263110  50.5534740  44.7773690  13.8007130  51.3513570  44.9538970
   2.9641240  51.2647210  46.7421170   3.2669280  50.3744950  46.5631390
   3.7084830  51.8217430  46.5143420   9.2144890  53.6105510  44.0690510
   8.5956330  54.0663010  43.4984950  10.0696670  53.7656970  43.6680210
   8.4083140  49.5944500  45.6757550   8.3391420  48.6534440  45.5146680
   9.1703000  49.6845910  46.2480120   9.4388310  42.4014880  45.9026480
   9.8153130  41.5286760  45.7900150   9.3407820  42.7373580  45.0116920
   3.5693320  40.7740510  41.3643920   3.6760070  41.6744240  41.6712680
   2.6585680  40.7258480  41.0738570  13.2212430  39.8965320  42.8354820
  14.0422050  39.4061890  42.8780300  13.2546510  40.4862980  43.5886660
   5.4101050  43.7426880  45.6969100   5.9179270  44.2407850  46.3374120
   5.9414290  42.9662080  45.5208460  17.5111980  41.9132070  49.3998450
  16.8064150  42.3013780  48.8813560  17.7769900  42.6082360  50.0019380
   3.6937150  38.3825440  49.9632520   3.6955590  38.8997830  49.1578420
   2.8641460  37.9055620  49.9402450  10.0808240  48.4944750  41.4622420
   9.4625510  48.9594200  40.8985140  10.5931490  49.1872230  41.8791930
   4.9440000  48.0220620  48.1406020   4.6109380  48.6489540  48.7827090
   5.1206680  48.5482500  47.3607690  13.4573910  41.8365700  45.6082360
  12.7529480  42.1250590  46.1885470  13.8186070  42.6465810  45.2481920
   3.3752480  40.0935400  47.9702970   3.7169290  40.9377450  47.6756840
   2.4368290  40.2419140  48.0868310   4.1559100  49.9901420  49.9555200
   4.7733100  50.6652500  49.6739650   3.2952220  50.3989400  49.8642700
  15.0736690  51.4540830  47.8709840  14.3900210  52.1239940  47.8626510
  15.6130980  51.6521480  47.1054700  16.5260830  41.2820490  45.9991570
  15.5785740  41.3159470  46.1307000  16.8510820  42.0959440  46.3840930
   7.0580370  37.5817670  44.2947560   7.3655350  37.0264560  43.5783060
   6.1281070  37.7162130  44.1120550  12.6095430  53.2984960  46.5855020
  12.6222590  52.8947250  45.7177280  12.0570650  54.0732250  46.4816450
  13.9040850  50.0201180  41.6745190  13.7937180  49.0775510  41.7994610
  13.9009100  50.3816820  42.5607950  12.0080870  48.2014800  47.9137630
  12.4249660  47.9874910  47.0791090  12.7320690  48.4587590  48.4846250
   9.4461130  45.6466500  41.0307680   8.5190410  45.5803880  41.2596150
   9.5985950  46.5846630  40.9162920   9.4330210  41.9183500  38.0274840
   8.4933880  42.0797460  38.1127300   9.7513470  42.6369180  37.4810830
  15.9542970  46.6002020  48.0053870  15.1261600  46.6695110  47.5304000
  16.5493450  47.1856330  47.5369700  13.4758420  47.2086800  41.5342930
  12.8570840  46.8706350  40.8869230  13.4582870  46.5646560  42.2422120
  12.9184980  43.3871340  48.9508740  12.5056160  44.2125050  49.2048730
  12.1860930  42.8016380  48.7585100   5.0517770  46.1731240  43.8127410
   4.6474770  45.4608490  43.3173310   5.1380890  45.8284480  44.7015450
   5.5199470  49.8598800  45.9766620   5.2227760  49.2544270  45.2974400
   6.4699290  49.8976110  45.8655980   3.7646390  42.9474450  47.5926450
   4.3160980  43.0569790  46.8179700   4.2789900  43.3212050  48.3081680
  13.6085080  53.4330670  49.6389720  13.1315640  54.2402860  49.4462330
  12.9246870  52.7809000  49.7915930   4.6117900  49.5980490  52.6274420
   3.7146430  49.8220460  52.8747820   4.6370770  49.7215430  51.6785820
  11.6523120  46.4473610  38.5415680  12.0916400  45.6096040  38.3953500
  12.3651540  47.0803010  38.6279820   3.4389120  46.4693810  51.2031790
   3.2996890  47.3416610  51.5719190   2.5570480  46.1266620  51.0579730
   9.7618500  51.3869680  42.5096920  10.2014410  52.1294010  42.0952310
   9.7005390  51.6296250  43.4335880   5.2369470  52.4115510  53.4116940
   5.2084900  52.8158460  52.5445370   5.0734440  51.4825870  53.2488540
  15.2340260  37.7016420  36.8556720  14.9212920  37.7943250  37.7555790
  15.9952730  38.2797450  36.8054150  17.1884290  53.1942610  54.7081110
  17.6644010  53.6725500  55.3870190  17.8091450  53.1260100  53.9826610
  16.5917540  50.3855460  51.8681120  16.7180600  50.1467340  50.9498300
  16.6338920  49.5540000  52.3403200  10.4534280  54.0883460  50.4375930
  10.9678950  53.9991470  51.2398360   9.6103360  54.4343160  50.7303840
  12.4288680  54.3738800  39.8659930  12.2689820  54.0841740  40.7641760
  12.2635390  53.5978930  39.3305160   4.9077060  54.1537330  41.6431550
   4.7319540  53.2372870  41.4299350   4.0532800  54.5124620  41.8829350
  12.1314810  51.8826360  38.4257930  11.4379970  51.8803650  37.7660210
  12.8737670  51.4585680  37.9952100  11.6964740  53.5089070  42.5006420
  12.1521690  52.7278450  42.8145040  12.0357260  54.2195890  43.0447600
  16.4441550  42.4387920  52.8330860  15.8285820  42.9467590  52.3046320
  16.1237970  41.5386250  52.7756800   4.2186060  38.4111290  44.6957730
   3.7754210  39.1920830  44.3642250   4.7771050  38.7341180  45.4028670
   8.5055870  41.2779810  50.2993050   8.0435240  41.4862830  51.1112990
   8.1033980  40.4639160  49.9963720  13.5060380  42.4988760  51.4289710
  12.6553970  42.1994510  51.7498780  13.3462170  42.7430770  50.5173530
  10.6010090  43.9990510  53.5288500  10.9263500  43.1654260  53.1890730
  11.3890420  44.5219030  53.6766830   7.3344880  38.0321990  39.5763560
   6.7099060  38.0281860  40.3016870   7.2475000  37.1652950  39.1799530
   6.2561960  38.9558620  46.5547330   6.5534290  39.8621450  46.4739350
   6.8047520  38.4677400  45.9406900   4.0100280  43.5344860  42.4238980
   3.7841200  43.3182030  43.3285600   3.2292810  43.9673320  42.0784950
  11.2398040  43.5408230  41.0229630  10.6406930  44.2644030  40.8393250
  11.7877650  43.4785010  40.2406080   6.4499490  44.4330440  53.0899250
   6.3543090  43.4925170  52.9399650   7.2931470  44.6545510  52.6947320
   9.8462910  42.1771770  43.0532910  10.2392480  42.4943970  42.2401600
  10.2079760  41.2983650  43.1677430   8.1555080  40.9279080  54.3129770
   7.4653400  40.7351280  54.9475860   8.8987380  41.2113720  54.8454070
  10.4318050  44.7677520  47.1483690   9.6999170  45.2764330  47.4973790
  10.0342390  43.9507500  46.8472470   6.8695440  41.4431720  45.5536180
   6.8731500  41.0021670  44.7040720   7.7646560  41.7649050  45.6608000
   2.7197820  41.3258210  44.5130390   2.3797870  41.8033440  45.2697440
   1.9575140  40.8723330  44.1531490   6.9315590  42.4443800  38.5442940
   7.0528410  42.4030280  39.4928760   6.5464100  43.3067950  38.3889670
  10.8943960  40.2211200  46.5606630  10.9116700  40.6719850  47.4048480
  10.6459540  39.3216840  46.7740070   5.9437090  44.7544940  37.9426240
   5.3753990  44.3063190  37.3162150   6.6526090  45.1137720  37.4091390
  14.3214710  37.6343380  52.3993010  14.6460480  36.9033040  52.9250990
  14.3571220  37.3157020  51.4974000   7.1703410  45.5033500  47.3001590
   7.5373540  45.0292070  48.0462930   6.9808470  46.3775070  47.6409930
   4.9602780  44.5442140  49.6185800   4.6559850  45.4234120  49.8436160
   5.9149240  44.6041930  49.6543240   3.4884570  48.7503130  40.2152650
   2.7146830  48.2100750  40.0551370   4.2179200  48.2309740  39.8770410
  14.2472550  47.7468490  46.0079040  14.9671670  48.2423780  45.6175150
  14.0454370  47.0686380  45.3632910   9.7082490  39.1406450  40.1508430
   8.8947100  38.6419620  40.0753740   9.5144440  39.9804700  39.7344780
   9.6291350  47.8177550  51.8948040   9.5628660  46.8973220  51.6405630
   8.9996490  47.9152990  52.6092680  12.4230880  43.5126100  38.4470590
  13.3110500  43.8243330  38.2721930  12.3935970  42.6398350  38.0551170
   3.5321970  48.4183510  43.8531460   4.0500640  47.6151770  43.7988350
   3.0805990  48.3562650  44.6948290   8.4191470  49.6849790  39.1258760
   8.7607170  50.4292020  38.6302080   7.5904180  49.9980910  39.4883590
   4.2179630  45.8429120  53.6496710   3.9179770  45.9886300  52.7524530
   4.9890870  45.2834410  53.5570100   9.5608080  50.6398120  51.6451840
   9.5752620  49.7079080  51.4270750   8.8533180  50.7257880  52.2841610
  14.6945150  44.8237940  37.9150450  14.6108870  45.2552160  37.0646890
  15.4139340  45.2836290  38.3477270  15.7719290  47.2805460  50.9920420
  15.0467480  47.8734240  50.7949810  16.2994750  47.2729000  50.1933790
  15.7232400  51.6780200  40.6432580  15.0808560  51.0235820  40.9176300
  15.3363060  52.0835290  39.8673250  11.3018880  49.0065630  44.4904270
  11.6542700  48.4093760  43.8305640  10.4181210  48.6809860  44.6612520
   7.3882160  49.7663320  41.8974680   8.0753290  50.3132530  42.2782270
   6.6014580  50.3104050  41.9324290   6.6909370  46.7709350  41.5100040
   7.1472150  47.5814600  41.7360230   6.3397580  46.4532490  42.3418530
   8.9941980  52.2815690  48.7392340   9.6384200  52.4875070  49.4165760
   9.3571420  51.5204090  48.2863190   2.5921150  37.1147000  41.9822560
   2.4635780  37.1064900  42.9307480   1.7683170  37.4530090  41.6313570
  10.2674060  50.2848040  47.4569790  10.9096290  49.5841200  47.5701960
  10.7923410  51.0646480  47.2766680  14.1129780  50.5696660  37.1808930
  13.8867360  49.8527100  37.7733570  13.7225980  50.3209100  36.3430680
  12.0411680  51.0842940  50.6605850  12.3767920  51.6709630  51.3383770
  11.1212020  50.9535650  50.8903640  13.6946030  48.4868600  38.8423090
  13.4067730  48.9481290  39.6300970  14.4898200  48.0266370  39.1107310
   7.8700260  51.1334270  53.8293910   7.5497130  50.4143510  54.3739600
   7.1958620  51.8089340  53.9029970   5.9114430  51.9794720  38.7727060
   5.9024530  52.7124410  38.1571570   4.9912790  51.7326300  38.8654020
  11.0853860  41.3660430  49.1930710  11.4534680  40.5455640  49.5210280
  10.2252060  41.4262320  49.6086360  14.4515890  40.3217370  40.0018270
  13.8229050  40.4263040  39.2876500  13.9567810  40.5414150  40.7912150
   8.8974030  52.0422960  37.4352250   8.9986010  51.8386950  36.5054230
   7.9975770  51.7881240  37.6400030   6.4199920  42.6003320  41.4176150
   5.7116070  43.0689660  41.8589760   6.7044400  41.9425330  42.0521340
   8.0455850  44.0200020  49.4168680   8.5441100  44.4945840  50.0820530
   8.1878800  43.0963540  49.6238710  10.4515350  39.3253980  42.8571940
  10.3283130  39.3440110  41.9081450  11.3999910  39.3732920  42.9770340
   7.5392140  54.5609280  42.1299920   7.7933640  54.5230670  41.2079290
   6.5904620  54.4342610  42.1228170   4.6234940  40.9088400  38.7926860
   5.4725470  41.3458550  38.7267050   4.2566210  41.2208660  39.6198920
  15.2522710  40.2367980  50.2597070  14.7496310  40.9773380  50.5990880
  16.0679370  40.6251980  49.9433860  13.5444720  45.4801160  43.7058430
  12.6034860  45.4951390  43.8806120  13.8588790  44.6937120  44.1518730
   3.5226360  47.1620760  37.2662390   4.2889630  47.0502120  37.8287820
   3.6001050  46.4658730  36.6139160   2.2173120  44.5945830  37.9495280
   2.2976710  43.6473340  38.0612680   3.1092870  44.9252710  38.0555940
  15.5470300  52.6510010  45.3812690  15.6717720  53.4741180  45.8536500
  16.4135860  52.4400740  45.0336840   3.0187830  54.7441220  45.0529820
   3.7550310  54.1956680  45.3238390   3.4028750  55.6097230  44.9135810
   6.1290140  53.9171530  36.8755390   6.9218750  54.2060360  36.4237180
   5.6094490  53.4863700  36.1967870  10.8610740  50.0367160  54.1890810
  10.2548900  50.0598760  53.4486560  10.5564850  49.3050200  54.7258060
  12.2911110  53.7647450  52.8000220  13.2432860  53.6805470  52.7500460
  12.1439330  54.4289160  53.4734010  15.1820310  53.1441660  38.2992130
  14.8961820  52.7306800  37.4846310  14.9839860  54.0729370  38.1792650
   6.6467540  49.1374940  36.7397740   6.5418180  48.5227290  37.4659120
   6.4791760  48.6140830  35.9560750   6.7981860  47.8231740  52.7186970
   6.0327530  48.3916740  52.6341640   6.9797820  47.5307950  51.8255200
   9.8870270  48.1994970  37.3439730   9.3380370  48.6464270  37.9882470
  10.5089530  47.6944220  37.8677400  13.9405210  49.5537070  53.2761990
  14.6814680  49.8912830  52.7729450  13.1777890  49.7229130  52.7231760
   1.7767000  44.5590340  54.0801520   1.8172340  44.2604210  54.9886750
   2.6312500  44.9597950  53.9209040   5.5545390  47.1585890  39.2405030
   5.9761810  46.9925760  40.0836420   5.6796230  46.3486120  38.7460170
   3.7172810  43.1382440  52.0476010   3.1869270  42.6473390  51.4199350
   4.3860880  43.5666640  51.5133940   8.0673030  46.1823500  36.4882130
   8.5878690  45.4672520  36.1223280   8.7141430  46.8209370  36.7882640
  12.6150870  47.6051900  51.8117200  13.0291890  47.7596980  52.6607620
  11.6801870  47.7307120  51.9742980  13.0873040  44.9448060  53.8156350
  13.6693810  44.1900380  53.7276830  13.2634810  45.4755500  53.0387830
   4.2045110  40.1044810  52.1273300   4.1101980  39.4865560  51.4024170
   3.6242500  40.8311100  51.9003210   6.9706550  38.6618050  49.1600690
   6.5223850  38.6842310  48.3146240   6.3371750  38.2637070  49.7570990
   7.3766100  47.5572380  49.7813130   7.7954210  48.4005110  49.6089370
   6.4574730  47.6944420  49.5519910   9.7130000  45.2888560  51.1650970
   9.8326210  44.6929700  51.9045810  10.5724000  45.3258250  50.7452270
  12.0517900  45.8425750  49.7413480  11.5253120  46.3668370  49.1378620
  12.3949240  46.4753140  50.3723210   4.4504290  43.2319120  36.1863190
   4.2493350  42.3686480  36.5476530   4.2796340  43.1452480  35.2484790
   5.2273520  53.8625390  50.8970860   4.6894610  54.5871450  50.5779560
   5.4807480  53.3855730  50.1068200   6.4798770  41.8309910  52.4226790
   7.0698460  41.5225760  53.1104610   5.6619010  41.3589660  52.5786690
  11.2992200  41.4475720  52.6559810  10.6107720  40.7857260  52.5909800
  12.0198220  41.0013990  53.1008270  11.9292600  38.0427350  38.7150070
  12.2094890  37.1995250  39.0709490  11.1558330  38.2750460  39.2288820
   3.2487090  40.3319740  36.1741070   3.5512990  40.3387170  35.2660220
   3.9881680  39.9817600  36.6708730   8.0835730  55.0976600  51.1557510
   8.0094430  56.0011740  51.4629880   7.1814570  54.7788500  51.1279580
   6.4672020  39.2754360  37.1597270   6.1194020  38.5978350  36.5799720
   6.6684790  38.8143870  37.9740660   8.6321060  54.2635110  38.7783870
   9.5271850  54.6020080  38.8002630   8.6638690  53.5414520  38.1508150
   2.2717220  49.6362160  37.0070870   2.7092090  50.1791830  37.6628450
   2.7564950  48.8109110  37.0167210   4.0824940  50.7560200  42.1193100
   3.7820480  50.6325170  43.0197010   3.9762430  49.8968790  41.7108830
  15.6115410  52.7938780  51.4850070  15.0117400  52.8531340  50.7413990
  15.7409310  51.8543760  51.6146920  16.8516860  50.5356600  36.8219780
  16.0209820  50.6033250  37.2927010  17.0288690  51.4260720  36.5186640
  16.3073320  47.2804080  39.3253980  17.0692230  47.8500730  39.4313670
  16.3227690  46.7131280  40.0962290  17.3133290  48.1354180  44.1695910
  17.6842120  47.3521500  43.7631880  17.9535220  48.8243280  43.9913210
  14.2967050  49.5190760  49.5826230  13.4826890  49.9487920  49.8452020
  14.7041250  50.1309170  48.9695280  16.3592490  47.5738450  36.4826500
  16.6341330  48.4817330  36.3545720  16.1703230  47.5100980  37.4188490
  12.7568100  40.5983300  37.7780130  13.1752980  40.4114280  36.9376790
  12.4504160  39.7462350  38.0883060  16.2557830  45.5107440  41.4755930
  15.8801430  44.7435370  41.0437220  15.5260950  45.8930140  41.9630860
  15.6457450  44.6578960  51.1095450  15.4143540  44.4291710  50.2093400
  15.9062000  45.5778510  51.0640340  14.0845520  39.8835390  53.8875150
  14.9615700  39.8918790  54.2709150  14.0966360  39.1466230  53.2767500
  15.5308790  43.7364930  44.7763170  16.0546270  43.2427580  44.1453340
  16.1168210  43.8715290  45.5210740  15.7098510  43.8204800  48.2982720
  14.7601220  43.7868340  48.4127710  15.8911520  44.7304910  48.0632490
  15.0208760  42.9938280  40.7155580  15.5167880  42.7609150  41.5004460
  14.8224830  42.1550120  40.2993220  16.4495920  41.6299230  43.2493260
  16.3395200  41.4755270  44.1875530  17.2103510  41.1020170  43.0068670
  14.7961640  37.5693360  49.7076260  15.4333860  38.1827500  50.0735450
  14.9436530  37.6054020  48.7625490  17.3386190  39.4607150  36.4899400
  18.2635500  39.3288330  36.2817690  17.3161980  39.5399970  37.4435850
  17.4124680  40.2317810  39.1156110  16.6176180  40.1662930  39.6449020
  17.6167960  41.1668450  39.1041460  14.3543100  54.2709360  43.1094500
  14.9502170  53.9493930  42.4328920  14.6121250  53.7981180  43.9007770
   2.2605670  50.7027270  53.2585130   2.2175300  50.3320180  54.1399590
   2.3916680  51.6404840  53.3986950   5.9611700  52.2586860  48.8594850
   5.7203060  52.5261420  47.9725370   6.9014340  52.4292590  48.9145710
   8.1666120  38.7219550  52.6151360   8.1055010  39.3141380  53.3646770
   9.1066500  38.6145510  52.4701620  10.8040680  38.3789610  52.2543650
  11.4181090  38.6968900  51.5924730  11.3490240  37.8938200  52.8739510
  17.2215860  54.2781240  49.6605490  16.7274140  54.6750110  48.9432620
  16.6129150  53.6530450  50.0542770  11.5448720  36.9421750  48.5812940
  10.6708560  37.2756860  48.3785870  11.4359470  36.4694930  49.4064810
  12.4520700  39.1492620  49.9654660  12.1234060  38.3344380  49.5856390
  13.4003000  39.1062430  49.8420350  14.9055310  54.9204660  46.9392230
  14.4458280  55.6720470  46.5650250  14.2767770  54.2011130  46.8807030
   5.3351030  53.2292900  46.1140360   5.8516050  52.6180260  45.5888620
   5.9848410  53.7321680  46.6051370   8.0746530  54.1201390  46.9409340
   8.3624340  53.8655690  46.0642350   8.5869750  53.5678750  47.5314910
   9.2923540  37.8591590  47.5205850   8.5095330  38.3337090  47.8002610
   8.9986470  36.9546420  47.4119030  13.8444610  38.5614690  45.5654940
  14.2852700  38.5059790  44.7176540  13.5752200  39.4772700  45.6365120
  15.7083180  38.1929930  43.5763760  15.6471580  37.2491150  43.4294780
  16.4875210  38.3010020  44.1217220   7.1777760  40.2778340  43.0321880
   6.3652270  39.9035230  42.6917760   7.6819400  39.5223420  43.3343070
  11.6802740  36.9420790  44.2704950  12.2832110  37.5141000  44.7453470
  10.9395730  37.5060230  44.0478850  14.8237340  37.3442350  39.5445230
  15.0187970  38.2425800  39.8112660  14.0367210  37.1129430  40.0378180
   3.0089100  38.6903120  38.5821540   3.5381860  37.9032920  38.4529490
   3.6417420  39.3694310  38.8157070   5.2026940  38.4278260  41.6366930
   4.5729680  37.7265570  41.8037060   4.6632080  39.1882390  41.4200090
   8.1418890  55.0417490  54.3077540   9.0686200  54.8061760  54.3513500
   8.1269320  55.8689490  53.8263570  16.3763950  54.5843060  41.3051790
  16.5516140  53.8980800  40.6612710  15.6785520  55.1090110  40.9128460
   5.3282500  37.7062240  54.0719420   5.0466770  38.2095840  53.3080240
   5.7102200  36.9083990  53.7061550   4.2191600  54.9737900  38.8587100
   4.9510420  54.6897180  38.3110990   4.4785270  54.7351180  39.7486480
   3.3806390  51.0902630  38.8633430   2.7515270  51.5587730  39.4119260
   3.4954220  50.2451850  39.2979620  11.9297960  37.1215820  54.6499890
  11.8163410  37.4410430  55.5451410  12.7467700  37.5228330  54.3537170
  14.7096450  54.2687350  54.1318580  15.5021770  53.7736580  53.9244540
  15.0029600  54.9477490  54.7394190  10.8356110  45.1408290  25.0134630
  10.7550160  44.2262900  24.7426340  10.4220530  45.6375360  24.3074340
   8.9674150  46.9187310  26.8943900   8.1916250  46.4387750  27.1842470
   9.6187080  46.2392960  26.7200060   2.9839980  47.2307120  27.7719660
   2.1524860  46.9755830  28.1716170   3.5920960  47.3017890  28.5077580
  12.9881580  51.3247500  25.6743030  12.5263110  50.5534740  26.0030200
  13.8007130  51.3513570  26.1795480   2.9641240  51.2647210  27.9677680
   3.2669280  50.3744950  27.7887900   3.7084830  51.8217430  27.7399930
   9.2144890  53.6105510  25.2947020   8.5956330  54.0663010  24.7241460
  10.0696670  53.7656970  24.8936720   8.4083140  49.5944500  26.9014060
   8.3391420  48.6534440  26.7403190   9.1703000  49.6845910  27.4736630
   9.4388310  42.4014880  27.1282990   9.8153130  41.5286760  27.0156660
   9.3407820  42.7373580  26.2373430   3.5693320  40.7740510  22.5900430
   3.6760070  41.6744240  22.8969190   2.6585680  40.7258480  22.2995080
  13.2212430  39.8965320  24.0611330  14.0422050  39.4061890  24.1036810
  13.2546510  40.4862980  24.8143170   5.4101050  43.7426880  26.9225610
   5.9179270  44.2407850  27.5630630   5.9414290  42.9662080  26.7464970
  17.5111980  41.9132070  30.6254960  16.8064150  42.3013780  30.1070070
  17.7769900  42.6082360  31.2275890   3.6937150  38.3825440  31.1889030
   3.6955590  38.8997830  30.3834930   2.8641460  37.9055620  31.1658960
  10.0808240  48.4944750  22.6878930   9.4625510  48.9594200  22.1241650
  10.5931490  49.1872230  23.1048440   4.9440000  48.0220620  29.3662530
   4.6109380  48.6489540  30.0083600   5.1206680  48.5482500  28.5864200
  13.4573910  41.8365700  26.8338870  12.7529480  42.1250590  27.4141980
  13.8186070  42.6465810  26.4738430   3.3752480  40.0935400  29.1959480
   3.7169290  40.9377450  28.9013350   2.4368290  40.2419140  29.3124820
   4.1559100  49.9901420  31.1811710   4.7733100  50.6652500  30.8996160
   3.2952220  50.3989400  31.0899210  15.0736690  51.4540830  29.0966350
  14.3900210  52.1239940  29.0883020  15.6130980  51.6521480  28.3311210
  16.5260830  41.2820490  27.2248080  15.5785740  41.3159470  27.3563510
  16.8510820  42.0959440  27.6097440   7.0580370  37.5817670  25.5204070
   7.3655350  37.0264560  24.8039570   6.1281070  37.7162130  25.3377060
  12.6095430  53.2984960  27.8111530  12.6222590  52.8947250  26.9433790
  12.0570650  54.0732250  27.7072960  13.9040850  50.0201180  22.9001700
  13.7937180  49.0775510  23.0251120  13.9009100  50.3816820  23.7864460
  12.0080870  48.2014800  29.1394140  12.4249660  47.9874910  28.3047600
  12.7320690  48.4587590  29.7102760   9.4461130  45.6466500  22.2564190
   8.5190410  45.5803880  22.4852660   9.5985950  46.5846630  22.1419430
   9.4330210  41.9183500  19.2531350   8.4933880  42.0797460  19.3383810
   9.7513470  42.6369180  18.7067340  15.9542970  46.6002020  29.2310380
  15.1261600  46.6695110  28.7560510  16.5493450  47.1856330  28.7626210
  13.4758420  47.2086800  22.7599440  12.8570840  46.8706350  22.1125740
  13.4582870  46.5646560  23.4678630  12.9184980  43.3871340  30.1765250
  12.5056160  44.2125050  30.4305240  12.1860930  42.8016380  29.9841610
   5.0517770  46.1731240  25.0383920   4.6474770  45.4608490  24.5429820
   5.1380890  45.8284480  25.9271960   5.5199470  49.8598800  27.2023130
   5.2227760  49.2544270  26.5230910   6.4699290  49.8976110  27.0912490
   3.7646390  42.9474450  28.8182960   4.3160980  43.0569790  28.0436210
   4.2789900  43.3212050  29.5338190  13.6085080  53.4330670  30.8646230
  13.1315640  54.2402860  30.6718840  12.9246870  52.7809000  31.0172440
   4.6117900  49.5980490  33.8530930   3.7146430  49.8220460  34.1004330
   4.6370770  49.7215430  32.9042330  11.6523120  46.4473610  19.7672190
  12.0916400  45.6096040  19.6210010  12.3651540  47.0803010  19.8536330
   3.4389120  46.4693810  32.4288300   3.2996890  47.3416610  32.7975700
   2.5570480  46.1266620  32.2836240   9.7618500  51.3869680  23.7353430
  10.2014410  52.1294010  23.3208820   9.7005390  51.6296250  24.6592390
   5.2369470  52.4115510  34.6373450   5.2084900  52.8158460  33.7701880
   5.0734440  51.4825870  34.4745050  15.2340260  37.7016420  18.0813230
  14.9212920  37.7943250  18.9812300  15.9952730  38.2797450  18.0310660
  17.1884290  53.1942610  35.9337620  17.6644010  53.6725500  36.6126700
  17.8091450  53.1260100  35.2083120  16.5917540  50.3855460  33.0937630
  16.7180600  50.1467340  32.1754810  16.6338920  49.5540000  33.5659710
  10.4534280  54.0883460  31.6632440  10.9678950  53.9991470  32.4654870
   9.6103360  54.4343160  31.9560350  12.4288680  54.3738800  21.0916440
  12.2689820  54.0841740  21.9898270  12.2635390  53.5978930  20.5561670
   4.9077060  54.1537330  22.8688060   4.7319540  53.2372870  22.6555860
   4.0532800  54.5124620  23.1085860  12.1314810  51.8826360  19.6514440
  11.4379970  51.8803650  18.9916720  12.8737670  51.4585680  19.2208610
  11.6964740  53.5089070  23.7262930  12.1521690  52.7278450  24.0401550
  12.0357260  54.2195890  24.2704110  16.4441550  42.4387920  34.0587370
  15.8285820  42.9467590  33.5302830  16.1237970  41.5386250  34.0013310
   4.2186060  38.4111290  25.9214240   3.7754210  39.1920830  25.5898760
   4.7771050  38.7341180  26.6285180   8.5055870  41.2779810  31.5249560
   8.0435240  41.4862830  32.3369500   8.1033980  40.4639160  31.2220230
  13.5060380  42.4988760  32.6546220  12.6553970  42.1994510  32.9755290
  13.3462170  42.7430770  31.7430040  10.6010090  43.9990510  34.7545010
  10.9263500  43.1654260  34.4147240  11.3890420  44.5219030  34.9023340
   7.3344880  38.0321990  20.8020070   6.7099060  38.0281860  21.5273380
   7.2475000  37.1652950  20.4056040   6.2561960  38.9558620  27.7803840
   6.5534290  39.8621450  27.6995860   6.8047520  38.4677400  27.1663410
   4.0100280  43.5344860  23.6495490   3.7841200  43.3182030  24.5542110
   3.2292810  43.9673320  23.3041460  11.2398040  43.5408230  22.2486140
  10.6406930  44.2644030  22.0649760  11.7877650  43.4785010  21.4662590
   6.4499490  44.4330440  34.3155760   6.3543090  43.4925170  34.1656160
   7.2931470  44.6545510  33.9203830   9.8462910  42.1771770  24.2789420
  10.2392480  42.4943970  23.4658110  10.2079760  41.2983650  24.3933940
   8.1555080  40.9279080  35.5386280   7.4653400  40.7351280  36.1732370
   8.8987380  41.2113720  36.0710580  10.4318050  44.7677520  28.3740200
   9.6999170  45.2764330  28.7230300  10.0342390  43.9507500  28.0728980
   6.8695440  41.4431720  26.7792690   6.8731500  41.0021670  25.9297230
   7.7646560  41.7649050  26.8864510   2.7197820  41.3258210  25.7386900
   2.3797870  41.8033440  26.4953950   1.9575140  40.8723330  25.3788000
   6.9315590  42.4443800  19.7699450   7.0528410  42.4030280  20.7185270
   6.5464100  43.3067950  19.6146180  10.8943960  40.2211200  27.7863140
  10.9116700  40.6719850  28.6304990  10.6459540  39.3216840  27.9996580
   5.9437090  44.7544940  19.1682750   5.3753990  44.3063190  18.5418660
   6.6526090  45.1137720  18.6347900  14.3214710  37.6343380  33.6249520
  14.6460480  36.9033040  34.1507500  14.3571220  37.3157020  32.7230510
   7.1703410  45.5033500  28.5258100   7.5373540  45.0292070  29.2719440
   6.9808470  46.3775070  28.8666440   4.9602780  44.5442140  30.8442310
   4.6559850  45.4234120  31.0692670   5.9149240  44.6041930  30.8799750
   3.4884570  48.7503130  21.4409160   2.7146830  48.2100750  21.2807880
   4.2179200  48.2309740  21.1026920  14.2472550  47.7468490  27.2335550
  14.9671670  48.2423780  26.8431660  14.0454370  47.0686380  26.5889420
   9.7082490  39.1406450  21.3764940   8.8947100  38.6419620  21.3010250
   9.5144440  39.9804700  20.9601290   9.6291350  47.8177550  33.1204550
   9.5628660  46.8973220  32.8662140   8.9996490  47.9152990  33.8349190
  12.4230880  43.5126100  19.6727100  13.3110500  43.8243330  19.4978440
  12.3935970  42.6398350  19.2807680   3.5321970  48.4183510  25.0787970
   4.0500640  47.6151770  25.0244860   3.0805990  48.3562650  25.9204800
   8.4191470  49.6849790  20.3515270   8.7607170  50.4292020  19.8558590
   7.5904180  49.9980910  20.7140100   4.2179630  45.8429120  34.8753220
   3.9179770  45.9886300  33.9781040   4.9890870  45.2834410  34.7826610
   9.5608080  50.6398120  32.8708350   9.5752620  49.7079080  32.6527260
   8.8533180  50.7257880  33.5098120  14.6945150  44.8237940  19.1406960
  14.6108870  45.2552160  18.2903400  15.4139340  45.2836290  19.5733780
  15.7719290  47.2805460  32.2176930  15.0467480  47.8734240  32.0206320
  16.2994750  47.2729000  31.4190300  15.7232400  51.6780200  21.8689090
  15.0808560  51.0235820  22.1432810  15.3363060  52.0835290  21.0929760
  11.3018880  49.0065630  25.7160780  11.6542700  48.4093760  25.0562150
  10.4181210  48.6809860  25.8869030   7.3882160  49.7663320  23.1231190
   8.0753290  50.3132530  23.5038780   6.6014580  50.3104050  23.1580800
   6.6909370  46.7709350  22.7356550   7.1472150  47.5814600  22.9616740
   6.3397580  46.4532490  23.5675040   8.9941980  52.2815690  29.9648850
   9.6384200  52.4875070  30.6422270   9.3571420  51.5204090  29.5119700
   2.5921150  37.1147000  23.2079070   2.4635780  37.1064900  24.1563990
   1.7683170  37.4530090  22.8570080  10.2674060  50.2848040  28.6826300
  10.9096290  49.5841200  28.7958470  10.7923410  51.0646480  28.5023190
  14.1129780  50.5696660  18.4065440  13.8867360  49.8527100  18.9990080
  13.7225980  50.3209100  17.5687190  12.0411680  51.0842940  31.8862360
  12.3767920  51.6709630  32.5640280  11.1212020  50.9535650  32.1160150
  13.6946030  48.4868600  20.0679600  13.4067730  48.9481290  20.8557480
  14.4898200  48.0266370  20.3363820   7.8700260  51.1334270  35.0550420
   7.5497130  50.4143510  35.5996110   7.1958620  51.8089340  35.1286480
   5.9114430  51.9794720  19.9983570   5.9024530  52.7124410  19.3828080
   4.9912790  51.7326300  20.0910530  11.0853860  41.3660430  30.4187220
  11.4534680  40.5455640  30.7466790  10.2252060  41.4262320  30.8342870
  14.4515890  40.3217370  21.2274780  13.8229050  40.4263040  20.5133010
  13.9567810  40.5414150  22.0168660   8.8974030  52.0422960  18.6608760
   8.9986010  51.8386950  17.7310740   7.9975770  51.7881240  18.8656540
   6.4199920  42.6003320  22.6432660   5.7116070  43.0689660  23.0846270
   6.7044400  41.9425330  23.2777850   8.0455850  44.0200020  30.6425190
   8.5441100  44.4945840  31.3077040   8.1878800  43.0963540  30.8495220
  10.4515350  39.3253980  24.0828450  10.3283130  39.3440110  23.1337960
  11.3999910  39.3732920  24.2026850   7.5392140  54.5609280  23.3556430
   7.7933640  54.5230670  22.4335800   6.5904620  54.4342610  23.3484680
   4.6234940  40.9088400  20.0183370   5.4725470  41.3458550  19.9523560
   4.2566210  41.2208660  20.8455430  15.2522710  40.2367980  31.4853580
  14.7496310  40.9773380  31.8247390  16.0679370  40.6251980  31.1690370
  13.5444720  45.4801160  24.9314940  12.6034860  45.4951390  25.1062630
  13.8588790  44.6937120  25.3775240   3.5226360  47.1620760  18.4918900
   4.2889630  47.0502120  19.0544330   3.6001050  46.4658730  17.8395670
   2.2173120  44.5945830  19.1751790   2.2976710  43.6473340  19.2869190
   3.1092870  44.9252710  19.2812450  15.5470300  52.6510010  26.6069200
  15.6717720  53.4741180  27.0793010  16.4135860  52.4400740  26.2593350
   3.0187830  54.7441220  26.2786330   3.7550310  54.1956680  26.5494900
   3.4028750  55.6097230  26.1392320   6.1290140  53.9171530  18.1011900
   6.9218750  54.2060360  17.6493690   5.6094490  53.4863700  17.4224380
  10.8610740  50.0367160  35.4147320  10.2548900  50.0598760  34.6743070
  10.5564850  49.3050200  35.9514570  12.2911110  53.7647450  34.0256730
  13.2432860  53.6805470  33.9756970  12.1439330  54.4289160  34.6990520
  15.1820310  53.1441660  19.5248640  14.8961820  52.7306800  18.7102820
  14.9839860  54.0729370  19.4049160   6.6467540  49.1374940  17.9654250
   6.5418180  48.5227290  18.6915630   6.4791760  48.6140830  17.1817260
   6.7981860  47.8231740  33.9443480   6.0327530  48.3916740  33.8598150
   6.9797820  47.5307950  33.0511710   9.8870270  48.1994970  18.5696240
   9.3380370  48.6464270  19.2138980  10.5089530  47.6944220  19.0933910
  13.9405210  49.5537070  34.5018500  14.6814680  49.8912830  33.9985960
  13.1777890  49.7229130  33.9488270   1.7767000  44.5590340  35.3058030
   1.8172340  44.2604210  36.2143260   2.6312500  44.9597950  35.1465550
   5.5545390  47.1585890  20.4661540   5.9761810  46.9925760  21.3092930
   5.6796230  46.3486120  19.9716680   3.7172810  43.1382440  33.2732520
   3.1869270  42.6473390  32.6455860   4.3860880  43.5666640  32.7390450
   8.0673030  46.1823500  17.7138640   8.5878690  45.4672520  17.3479790
   8.7141430  46.8209370  18.0139150  12.6150870  47.6051900  33.0373710
  13.0291890  47.7596980  33.8864130  11.6801870  47.7307120  33.1999490
  13.0873040  44.9448060  35.0412860  13.6693810  44.1900380  34.9533340
  13.2634810  45.4755500  34.2644340   4.2045110  40.1044810  33.3529810
   4.1101980  39.4865560  32.6280680   3.6242500  40.8311100  33.1259720
   6.9706550  38.6618050  30.3857200   6.5223850  38.6842310  29.5402750
   6.3371750  38.2637070  30.9827500   7.3766100  47.5572380  31.0069640
   7.7954210  48.4005110  30.8345880   6.4574730  47.6944420  30.7776420
   9.7130000  45.2888560  32.3907480   9.8326210  44.6929700  33.1302320
  10.5724000  45.3258250  31.9708780  12.0517900  45.8425750  30.9669990
  11.5253120  46.3668370  30.3635130  12.3949240  46.4753140  31.5979720
   4.4504290  43.2319120  17.4119700   4.2493350  42.3686480  17.7733040
   4.2796340  43.1452480  16.4741300   5.2273520  53.8625390  32.1227370
   4.6894610  54.5871450  31.8036070   5.4807480  53.3855730  31.3324710
   6.4798770  41.8309910  33.6483300   7.0698460  41.5225760  34.3361120
   5.6619010  41.3589660  33.8043200  11.2992200  41.4475720  33.8816320
  10.6107720  40.7857260  33.8166310  12.0198220  41.0013990  34.3264780
  11.9292600  38.0427350  19.9406580  12.2094890  37.1995250  20.2966000
  11.1558330  38.2750460  20.4545330   3.2487090  40.3319740  17.3997580
   3.5512990  40.3387170  16.4916730   3.9881680  39.9817600  17.8965240
   8.0835730  55.0976600  32.3814020   8.0094430  56.0011740  32.6886390
   7.1814570  54.7788500  32.3536090   6.4672020  39.2754360  18.3853780
   6.1194020  38.5978350  17.8056230   6.6684790  38.8143870  19.1997170
   8.6321060  54.2635110  20.0040380   9.5271850  54.6020080  20.0259140
   8.6638690  53.5414520  19.3764660   2.2717220  49.6362160  18.2327380
   2.7092090  50.1791830  18.8884960   2.7564950  48.8109110  18.2423720
   4.0824940  50.7560200  23.3449610   3.7820480  50.6325170  24.2453520
   3.9762430  49.8968790  22.9365340  15.6115410  52.7938780  32.7106580
  15.0117400  52.8531340  31.9670500  15.7409310  51.8543760  32.8403430
  16.8516860  50.5356600  18.0476290  16.0209820  50.6033250  18.5183520
  17.0288690  51.4260720  17.7443150  16.3073320  47.2804080  20.5510490
  17.0692230  47.8500730  20.6570180  16.3227690  46.7131280  21.3218800
  17.3133290  48.1354180  25.3952420  17.6842120  47.3521500  24.9888390
  17.9535220  48.8243280  25.2169720  14.2967050  49.5190760  30.8082740
  13.4826890  49.9487920  31.0708530  14.7041250  50.1309170  30.1951790
  16.3592490  47.5738450  17.7083010  16.6341330  48.4817330  17.5802230
  16.1703230  47.5100980  18.6445000  12.7568100  40.5983300  19.0036640
  13.1752980  40.4114280  18.1633300  12.4504160  39.7462350  19.3139570
  16.2557830  45.5107440  22.7012440  15.8801430  44.7435370  22.2693730
  15.5260950  45.8930140  23.1887370  15.6457450  44.6578960  32.3351960
  15.4143540  44.4291710  31.4349910  15.9062000  45.5778510  32.2896850
  14.0845520  39.8835390  35.1131660  14.9615700  39.8918790  35.4965660
  14.0966360  39.1466230  34.5024010  15.5308790  43.7364930  26.0019680
  16.0546270  43.2427580  25.3709850  16.1168210  43.8715290  26.7467250
  15.7098510  43.8204800  29.5239230  14.7601220  43.7868340  29.6384220
  15.8911520  44.7304910  29.2889000  15.0208760  42.9938280  21.9412090
  15.5167880  42.7609150  22.7260970  14.8224830  42.1550120  21.5249730
  16.4495920  41.6299230  24.4749770  16.3395200  41.4755270  25.4132040
  17.2103510  41.1020170  24.2325180  14.7961640  37.5693360  30.9332770
  15.4333860  38.1827500  31.2991960  14.9436530  37.6054020  29.9882000
  17.3386190  39.4607150  17.7155910  18.2635500  39.3288330  17.5074200
  17.3161980  39.5399970  18.6692360  17.4124680  40.2317810  20.3412620
  16.6176180  40.1662930  20.8705530  17.6167960  41.1668450  20.3297970
  14.3543100  54.2709360  24.3351010  14.9502170  53.9493930  23.6585430
  14.6121250  53.7981180  25.1264280   2.2605670  50.7027270  34.4841640
   2.2175300  50.3320180  35.3656100   2.3916680  51.6404840  34.6243460
   5.9611700  52.2586860  30.0851360   5.7203060  52.5261420  29.1981880
   6.9014340  52.4292590  30.1402220   8.1666120  38.7219550  33.8407870
   8.1055010  39.3141380  34.5903280   9.1066500  38.6145510  33.6958130
  10.8040680  38.3789610  33.4800160  11.4181090  38.6968900  32.8181240
  11.3490240  37.8938200  34.0996020  17.2215860  54.2781240  30.8862000
  16.7274140  54.6750110  30.1689130  16.6129150  53.6530450  31.2799280
  11.5448720  36.9421750  29.8069450  10.6708560  37.2756860  29.6042380
  11.4359470  36.4694930  30.6321320  12.4520700  39.1492620  31.1911170
  12.1234060  38.3344380  30.8112900  13.4003000  39.1062430  31.0676860
  14.9055310  54.9204660  28.1648740  14.4458280  55.6720470  27.7906760
  14.2767770  54.2011130  28.1063540   5.3351030  53.2292900  27.3396870
   5.8516050  52.6180260  26.8145130   5.9848410  53.7321680  27.8307880
   8.0746530  54.1201390  28.1665850   8.3624340  53.8655690  27.2898860
   8.5869750  53.5678750  28.7571420   9.2923540  37.8591590  28.7462360
   8.5095330  38.3337090  29.0259120   8.9986470  36.9546420  28.6375540
  13.8444610  38.5614690  26.7911450  14.2852700  38.5059790  25.9433050
  13.5752200  39.4772700  26.8621630  15.7083180  38.1929930  24.8020270
  15.6471580  37.2491150  24.6551290  16.4875210  38.3010020  25.3473730
   7.1777760  40.2778340  24.2578390   6.3652270  39.9035230  23.9174270
   7.6819400  39.5223420  24.5599580  11.6802740  36.9420790  25.4961460
  12.2832110  37.5141000  25.9709980  10.9395730  37.5060230  25.2735360
  14.8237340  37.3442350  20.7701740  15.0187970  38.2425800  21.0369170
  14.0367210  37.1129430  21.2634690   3.0089100  38.6903120  19.8078050
   3.5381860  37.9032920  19.6786000   3.6417420  39.3694310  20.0413580
   5.2026940  38.4278260  22.8623440   4.5729680  37.7265570  23.0293570
   4.6632080  39.1882390  22.6456600   8.1418890  55.0417490  35.5334050
   9.0686200  54.8061760  35.5770010   8.1269320  55.8689490  35.0520080
  16.3763950  54.5843060  22.5308300  16.5516140  53.8980800  21.8869220
  15.6785520  55.1090110  22.1384970   5.3282500  37.7062240  35.2975930
   5.0466770  38.2095840  34.5336750   5.7102200  36.9083990  34.9318060
   4.2191600  54.9737900  20.0843610   4.9510420  54.6897180  19.5367500
   4.4785270  54.7351180  20.9742990   3.3806390  51.0902630  20.0889940
   2.7515270  51.5587730  20.6375770   3.4954220  50.2451850  20.5236130
  11.9297960  37.1215820  35.8756400  11.8163410  37.4410430  36.7707920
  12.7467700  37.5228330  35.5793680  14.7096450  54.2687350  35.3575090
  15.5021770  53.7736580  35.1501050  15.0029600  54.9477490  35.9650700
  10.8356110  45.1408290   6.2391140  10.7550160  44.2262900   5.9682850
  10.4220530  45.6375360   5.5330850   8.9674150  46.9187310   8.1200410
   8.1916250  46.4387750   8.4098980   9.6187080  46.2392960   7.9456570
   2.9839980  47.2307120   8.9976170   2.1524860  46.9755830   9.3972680
   3.5920960  47.3017890   9.7334090  12.9881580  51.3247500   6.8999540
  12.5263110  50.5534740   7.2286710  13.8007130  51.3513570   7.4051990
   2.9641240  51.2647210   9.1934190   3.2669280  50.3744950   9.0144410
   3.7084830  51.8217430   8.9656440   9.2144890  53.6105510   6.5203530
   8.5956330  54.0663010   5.9497970  10.0696670  53.7656970   6.1193230
   8.4083140  49.5944500   8.1270570   8.3391420  48.6534440   7.9659700
   9.1703000  49.6845910   8.6993140   9.4388310  42.4014880   8.3539500
   9.8153130  41.5286760   8.2413170   9.3407820  42.7373580   7.4629940
   3.5693320  40.7740510   3.8156940   3.6760070  41.6744240   4.1225700
   2.6585680  40.7258480   3.5251590  13.2212430  39.8965320   5.2867840
  14.0422050  39.4061890   5.3293320  13.2546510  40.4862980   6.0399680
   5.4101050  43.7426880   8.1482120   5.9179270  44.2407850   8.7887140
   5.9414290  42.9662080   7.9721480  17.5111980  41.9132070  11.8511470
  16.8064150  42.3013780  11.3326580  17.7769900  42.6082360  12.4532400
   3.6937150  38.3825440  12.4145540   3.6955590  38.8997830  11.6091440
   2.8641460  37.9055620  12.3915470  10.0808240  48.4944750   3.9135440
   9.4625510  48.9594200   3.3498160  10.5931490  49.1872230   4.3304950
   4.9440000  48.0220620  10.5919040   4.6109380  48.6489540  11.2340110
   5.1206680  48.5482500   9.8120710  13.4573910  41.8365700   8.0595380
  12.7529480  42.1250590   8.6398490  13.8186070  42.6465810   7.6994940
   3.3752480  40.0935400  10.4215990   3.7169290  40.9377450  10.1269860
   2.4368290  40.2419140  10.5381330   4.1559100  49.9901420  12.4068220
   4.7733100  50.6652500  12.1252670   3.2952220  50.3989400  12.3155720
  15.0736690  51.4540830  10.3222860  14.3900210  52.1239940  10.3139530
  15.6130980  51.6521480   9.5567720  16.5260830  41.2820490   8.4504590
  15.5785740  41.3159470   8.5820020  16.8510820  42.0959440   8.8353950
   7.0580370  37.5817670   6.7460580   7.3655350  37.0264560   6.0296080
   6.1281070  37.7162130   6.5633570  12.6095430  53.2984960   9.0368040
  12.6222590  52.8947250   8.1690300  12.0570650  54.0732250   8.9329470
  13.9040850  50.0201180   4.1258210  13.7937180  49.0775510   4.2507630
  13.9009100  50.3816820   5.0120970  12.0080870  48.2014800  10.3650650
  12.4249660  47.9874910   9.5304110  12.7320690  48.4587590  10.9359270
   9.4461130  45.6466500   3.4820700   8.5190410  45.5803880   3.7109170
   9.5985950  46.5846630   3.3675940  15.9542970  46.6002020  10.4566890
  15.1261600  46.6695110   9.9817020  16.5493450  47.1856330   9.9882720
  13.4758420  47.2086800   3.9855950  12.8570840  46.8706350   3.3382250
  13.4582870  46.5646560   4.6935140  12.9184980  43.3871340  11.4021760
  12.5056160  44.2125050  11.6561750  12.1860930  42.8016380  11.2098120
   5.0517770  46.1731240   6.2640430   4.6474770  45.4608490   5.7686330
   5.1380890  45.8284480   7.1528470   5.5199470  49.8598800   8.4279640
   5.2227760  49.2544270   7.7487420   6.4699290  49.8976110   8.3169000
   3.7646390  42.9474450  10.0439470   4.3160980  43.0569790   9.2692720
   4.2789900  43.3212050  10.7594700  13.6085080  53.4330670  12.0902740
  13.1315640  54.2402860  11.8975350  12.9246870  52.7809000  12.2428950
   4.6117900  49.5980490  15.0787440   3.7146430  49.8220460  15.3260840
   4.6370770  49.7215430  14.1298840   3.4389120  46.4693810  13.6544810
   3.2996890  47.3416610  14.0232210   2.5570480  46.1266620  13.5092750
   9.7618500  51.3869680   4.9609940  10.2014410  52.1294010   4.5465330
   9.7005390  51.6296250   5.8848900   5.2369470  52.4115510  15.8629960
   5.2084900  52.8158460  14.9958390   5.0734440  51.4825870  15.7001560
  17.1884290  53.1942610  17.1594130  17.6644010  53.6725500  17.8383210
  17.8091450  53.1260100  16.4339630  16.5917540  50.3855460  14.3194140
  16.7180600  50.1467340  13.4011320  16.6338920  49.5540000  14.7916220
  10.4534280  54.0883460  12.8888950  10.9678950  53.9991470  13.6911380
   9.6103360  54.4343160  13.1816860  12.4288680  54.3738800   2.3172950
  12.2689820  54.0841740   3.2154780  12.2635390  53.5978930   1.7818180
   4.9077060  54.1537330   4.0944570   4.7319540  53.2372870   3.8812370
   4.0532800  54.5124620   4.3342370  11.6964740  53.5089070   4.9519440
  12.1521690  52.7278450   5.2658060  12.0357260  54.2195890   5.4960620
  16.4441550  42.4387920  15.2843880  15.8285820  42.9467590  14.7559340
  16.1237970  41.5386250  15.2269820   4.2186060  38.4111290   7.1470750
   3.7754210  39.1920830   6.8155270   4.7771050  38.7341180   7.8541690
   8.5055870  41.2779810  12.7506070   8.0435240  41.4862830  13.5626010
   8.1033980  40.4639160  12.4476740  13.5060380  42.4988760  13.8802730
  12.6553970  42.1994510  14.2011800  13.3462170  42.7430770  12.9686550
  10.6010090  43.9990510  15.9801520  10.9263500  43.1654260  15.6403750
  11.3890420  44.5219030  16.1279850   6.2561960  38.9558620   9.0060350
   6.5534290  39.8621450   8.9252370   6.8047520  38.4677400   8.3919920
   4.0100280  43.5344860   4.8752000   3.7841200  43.3182030   5.7798620
   3.2292810  43.9673320   4.5297970  11.2398040  43.5408230   3.4742650
  10.6406930  44.2644030   3.2906270  11.7877650  43.4785010   2.6919100
   6.4499490  44.4330440  15.5412270   6.3543090  43.4925170  15.3912670
   7.2931470  44.6545510  15.1460340   9.8462910  42.1771770   5.5045930
  10.2392480  42.4943970   4.6914620  10.2079760  41.2983650   5.6190450
   8.1555080  40.9279080  16.7642790   7.4653400  40.7351280  17.3988880
   8.8987380  41.2113720  17.2967090  10.4318050  44.7677520   9.5996710
   9.6999170  45.2764330   9.9486810  10.0342390  43.9507500   9.2985490
   6.8695440  41.4431720   8.0049200   6.8731500  41.0021670   7.1553740
   7.7646560  41.7649050   8.1121020   2.7197820  41.3258210   6.9643410
   2.3797870  41.8033440   7.7210460   1.9575140  40.8723330   6.6044510
  10.8943960  40.2211200   9.0119650  10.9116700  40.6719850   9.8561500
  10.6459540  39.3216840   9.2253090  14.3214710  37.6343380  14.8506030
  14.6460480  36.9033040  15.3764010  14.3571220  37.3157020  13.9487020
   7.1703410  45.5033500   9.7514610   7.5373540  45.0292070  10.4975950
   6.9808470  46.3775070  10.0922950   4.9602780  44.5442140  12.0698820
   4.6559850  45.4234120  12.2949180   5.9149240  44.6041930  12.1056260
   3.4884570  48.7503130   2.6665670   2.7146830  48.2100750   2.5064390
   4.2179200  48.2309740   2.3283430  14.2472550  47.7468490   8.4592060
  14.9671670  48.2423780   8.0688170  14.0454370  47.0686380   7.8145930
   9.7082490  39.1406450   2.6021450   8.8947100  38.6419620   2.5266760
   9.5144440  39.9804700   2.1857800   9.6291350  47.8177550  14.3461060
   9.5628660  46.8973220  14.0918650   8.9996490  47.9152990  15.0605700
   3.5321970  48.4183510   6.3044480   4.0500640  47.6151770   6.2501370
   3.0805990  48.3562650   7.1461310   4.2179630  45.8429120  16.1009730
   3.9179770  45.9886300  15.2037550   4.9890870  45.2834410  16.0083120
   9.5608080  50.6398120  14.0964860   9.5752620  49.7079080  13.8783770
   8.8533180  50.7257880  14.7354630  15.7719290  47.2805460  13.4433440
  15.0467480  47.8734240  13.2462830  16.2994750  47.2729000  12.6446810
  15.7232400  51.6780200   3.0945600  15.0808560  51.0235820   3.3689320
  15.3363060  52.0835290   2.3186270  11.3018880  49.0065630   6.9417290
  11.6542700  48.4093760   6.2818660  10.4181210  48.6809860   7.1125540
   7.3882160  49.7663320   4.3487700   8.0753290  50.3132530   4.7295290
   6.6014580  50.3104050   4.3837310   6.6909370  46.7709350   3.9613060
   7.1472150  47.5814600   4.1873250   6.3397580  46.4532490   4.7931550
   8.9941980  52.2815690  11.1905360   9.6384200  52.4875070  11.8678780
   9.3571420  51.5204090  10.7376210   2.5921150  37.1147000   4.4335580
   2.4635780  37.1064900   5.3820500   1.7683170  37.4530090   4.0826590
  10.2674060  50.2848040   9.9082810  10.9096290  49.5841200  10.0214980
  10.7923410  51.0646480   9.7279700  12.0411680  51.0842940  13.1118870
  12.3767920  51.6709630  13.7896790  11.1212020  50.9535650  13.3416660
   7.8700260  51.1334270  16.2806930   7.5497130  50.4143510  16.8252620
   7.1958620  51.8089340  16.3542990  11.0853860  41.3660430  11.6443730
  11.4534680  40.5455640  11.9723300  10.2252060  41.4262320  12.0599380
  14.4515890  40.3217370   2.4531290  13.8229050  40.4263040   1.7389520
  13.9567810  40.5414150   3.2425170   6.4199920  42.6003320   3.8689170
   5.7116070  43.0689660   4.3102780   6.7044400  41.9425330   4.5034360
   8.0455850  44.0200020  11.8681700   8.5441100  44.4945840  12.5333550
   8.1878800  43.0963540  12.0751730  10.4515350  39.3253980   5.3084960
  10.3283130  39.3440110   4.3594470  11.3999910  39.3732920   5.4283360
   7.5392140  54.5609280   4.5812940   7.7933640  54.5230670   3.6592310
   6.5904620  54.4342610   4.5741190  15.2522710  40.2367980  12.7110090
  14.7496310  40.9773380  13.0503900  16.0679370  40.6251980  12.3946880
  13.5444720  45.4801160   6.1571450  12.6034860  45.4951390   6.3319140
  13.8588790  44.6937120   6.6031750  15.5470300  52.6510010   7.8325710
  15.6717720  53.4741180   8.3049520  16.4135860  52.4400740   7.4849860
   3.0187830  54.7441220   7.5042840   3.7550310  54.1956680   7.7751410
   3.4028750  55.6097230   7.3648830  10.8610740  50.0367160  16.6403830
  10.2548900  50.0598760  15.8999580  10.5564850  49.3050200  17.1771080
  12.2911110  53.7647450  15.2513240  13.2432860  53.6805470  15.2013480
  12.1439330  54.4289160  15.9247030   6.7981860  47.8231740  15.1699990
   6.0327530  48.3916740  15.0854660   6.9797820  47.5307950  14.2768220
  13.9405210  49.5537070  15.7275010  14.6814680  49.8912830  15.2242470
  13.1777890  49.7229130  15.1744780   1.7767000  44.5590340  16.5314540
   1.8172340  44.2604210  17.4399770   2.6312500  44.9597950  16.3722060
   3.7172810  43.1382440  14.4989030   3.1869270  42.6473390  13.8712370
   4.3860880  43.5666640  13.9646960  12.6150870  47.6051900  14.2630220
  13.0291890  47.7596980  15.1120640  11.6801870  47.7307120  14.4256000
  13.0873040  44.9448060  16.2669370  13.6693810  44.1900380  16.1789850
  13.2634810  45.4755500  15.4900850   4.2045110  40.1044810  14.5786320
   4.1101980  39.4865560  13.8537190   3.6242500  40.8311100  14.3516230
   6.9706550  38.6618050  11.6113710   6.5223850  38.6842310  10.7659260
   6.3371750  38.2637070  12.2084010   7.3766100  47.5572380  12.2326150
   7.7954210  48.4005110  12.0602390   6.4574730  47.6944420  12.0032930
   9.7130000  45.2888560  13.6163990   9.8326210  44.6929700  14.3558830
  10.5724000  45.3258250  13.1965290  12.0517900  45.8425750  12.1926500
  11.5253120  46.3668370  11.5891640  12.3949240  46.4753140  12.8236230
   5.2273520  53.8625390  13.3483880   4.6894610  54.5871450  13.0292580
   5.4807480  53.3855730  12.5581220   6.4798770  41.8309910  14.8739810
   7.0698460  41.5225760  15.5617630   5.6619010  41.3589660  15.0299710
  11.2992200  41.4475720  15.1072830  10.6107720  40.7857260  15.0422820
  12.0198220  41.0013990  15.5521290   8.0835730  55.0976600  13.6070530
   8.0094430  56.0011740  13.9142900   7.1814570  54.7788500  13.5792600
   4.0824940  50.7560200   4.5706120   3.7820480  50.6325170   5.4710030
   3.9762430  49.8968790   4.1621850  15.6115410  52.7938780  13.9363090
  15.0117400  52.8531340  13.1927010  15.7409310  51.8543760  14.0659940
  16.3073320  47.2804080   1.7767000  17.0692230  47.8500730   1.8826690
  16.3227690  46.7131280   2.5475310  17.3133290  48.1354180   6.6208930
  17.6842120  47.3521500   6.2144900  17.9535220  48.8243280   6.4426230
  14.2967050  49.5190760  12.0339250  13.4826890  49.9487920  12.2965040
  14.7041250  50.1309170  11.4208300  16.2557830  45.5107440   3.9268950
  15.8801430  44.7435370   3.4950240  15.5260950  45.8930140   4.4143880
  15.6457450  44.6578960  13.5608470  15.4143540  44.4291710  12.6606420
  15.9062000  45.5778510  13.5153360  14.0845520  39.8835390  16.3388170
  14.9615700  39.8918790  16.7222170  14.0966360  39.1466230  15.7280520
  15.5308790  43.7364930   7.2276190  16.0546270  43.2427580   6.5966360
  16.1168210  43.8715290   7.9723760  15.7098510  43.8204800  10.7495740
  14.7601220  43.7868340  10.8640730  15.8911520  44.7304910  10.5145510
  15.0208760  42.9938280   3.1668600  15.5167880  42.7609150   3.9517480
  14.8224830  42.1550120   2.7506240  16.4495920  41.6299230   5.7006280
  16.3395200  41.4755270   6.6388550  17.2103510  41.1020170   5.4581690
  14.7961640  37.5693360  12.1589280  15.4333860  38.1827500  12.5248470
  14.9436530  37.6054020  11.2138510  14.3543100  54.2709360   5.5607520
  14.9502170  53.9493930   4.8841940  14.6121250  53.7981180   6.3520790
   2.2605670  50.7027270  15.7098150   2.2175300  50.3320180  16.5912610
   2.3916680  51.6404840  15.8499970   5.9611700  52.2586860  11.3107870
   5.7203060  52.5261420  10.4238390   6.9014340  52.4292590  11.3658730
   8.1666120  38.7219550  15.0664380   8.1055010  39.3141380  15.8159790
   9.1066500  38.6145510  14.9214640  10.8040680  38.3789610  14.7056670
  11.4181090  38.6968900  14.0437750  11.3490240  37.8938200  15.3252530
  17.2215860  54.2781240  12.1118510  16.7274140  54.6750110  11.3945640
  16.6129150  53.6530450  12.5055790  11.5448720  36.9421750  11.0325960
  10.6708560  37.2756860  10.8298890  11.4359470  36.4694930  11.8577830
  12.4520700  39.1492620  12.4167680  12.1234060  38.3344380  12.0369410
  13.4003000  39.1062430  12.2933370  14.9055310  54.9204660   9.3905250
  14.4458280  55.6720470   9.0163270  14.2767770  54.2011130   9.3320050
   5.3351030  53.2292900   8.5653380   5.8516050  52.6180260   8.0401640
   5.9848410  53.7321680   9.0564390   8.0746530  54.1201390   9.3922360
   8.3624340  53.8655690   8.5155370   8.5869750  53.5678750   9.9827930
   9.2923540  37.8591590   9.9718870   8.5095330  38.3337090  10.2515630
   8.9986470  36.9546420   9.8632050  13.8444610  38.5614690   8.0167960
  14.2852700  38.5059790   7.1689560  13.5752200  39.4772700   8.0878140
  15.7083180  38.1929930   6.0276780  15.6471580  37.2491150   5.8807800
  16.4875210  38.3010020   6.5730240   7.1777760  40.2778340   5.4834900
   6.3652270  39.9035230   5.1430780   7.6819400  39.5223420   5.7856090
  11.6802740  36.9420790   6.7217970  12.2832110  37.5141000   7.1966490
  10.9395730  37.5060230   6.4991870  14.8237340  37.3442350   1.9958250
  15.0187970  38.2425800   2.2625680  14.0367210  37.1129430   2.4891200
   5.2026940  38.4278260   4.0879950   4.5729680  37.7265570   4.2550080
   4.6632080  39.1882390   3.8713110   8.1418890  55.0417490  16.7590560
   9.0686200  54.8061760  16.8026520   8.1269320  55.8689490  16.2776590
  16.3763950  54.5843060   3.7564810  16.5516140  53.8980800   3.1125730
  15.6785520  55.1090110   3.3641480   5.3282500  37.7062240  16.5232440
   5.0466770  38.2095840  15.7593260   5.7102200  36.9083990  16.1574570
  11.9297960  37.1215820  17.1012910  11.8163410  37.4410430  17.9964430
  12.7467700  37.5228330  16.8050190  14.7096450  54.2687350  16.5831600
  15.5021770  53.7736580  16.3757560  15.0029600  54.9477490  17.1907210
  10.8356110  26.3664800  62.5621610  10.7550160  25.4519410  62.2913320
  10.4220530  26.8631870  61.8561320   8.9674150  28.1443820  64.4430880
   8.1916250  27.6644260  64.7329450   9.6187080  27.4649470  64.2687040
   2.9839980  28.4563630  65.3206640   2.1524860  28.2012340  65.7203150
   3.5920960  28.5274400  66.0564560  12.9881580  32.5504010  63.2230010
  12.5263110  31.7791250  63.5517180  13.8007130  32.5770080  63.7282460
   2.9641240  32.4903720  65.5164660   3.2669280  31.6001460  65.3374880
   3.7084830  33.0473940  65.2886910   9.2144890  34.8362020  62.8434000
   8.5956330  35.2919520  62.2728440  10.0696670  34.9913480  62.4423700
   8.4083140  30.8201010  64.4501040   8.3391420  29.8790950  64.2890170
   9.1703000  30.9102420  65.0223610   9.4388310  23.6271390  64.6769970
   9.8153130  22.7543270  64.5643640   9.3407820  23.9630090  63.7860410
   3.5693320  21.9997020  60.1387410   3.6760070  22.9000750  60.4456170
   2.6585680  21.9514990  59.8482060  13.2212430  21.1221830  61.6098310
  14.0422050  20.6318400  61.6523790  13.2546510  21.7119490  62.3630150
   5.4101050  24.9683390  64.4712590   5.9179270  25.4664360  65.1117610
   5.9414290  24.1918590  64.2951950  17.5111980  23.1388580  68.1741940
  16.8064150  23.5270290  67.6557050  17.7769900  23.8338870  68.7762870
   3.6937150  19.6081950  68.7376010   3.6955590  20.1254340  67.9321910
   2.8641460  19.1312130  68.7145940  10.0808240  29.7201260  60.2365910
   9.4625510  30.1850710  59.6728630  10.5931490  30.4128740  60.6535420
   4.9440000  29.2477130  66.9149510   4.6109380  29.8746050  67.5570580
   5.1206680  29.7739010  66.1351180  13.4573910  23.0622210  64.3825850
  12.7529480  23.3507100  64.9628960  13.8186070  23.8722320  64.0225410
   3.3752480  21.3191910  66.7446460   3.7169290  22.1633960  66.4500330
   2.4368290  21.4675650  66.8611800   4.1559100  31.2157930  68.7298690
   4.7733100  31.8909010  68.4483140   3.2952220  31.6245910  68.6386190
  15.0736690  32.6797340  66.6453330  14.3900210  33.3496450  66.6370000
  15.6130980  32.8777990  65.8798190  16.5260830  22.5077000  64.7735060
  15.5785740  22.5415980  64.9050490  16.8510820  23.3215950  65.1584420
   7.0580370  18.8074180  63.0691050   7.3655350  18.2521070  62.3526550
   6.1281070  18.9418640  62.8864040  12.6095430  34.5241470  65.3598510
  12.6222590  34.1203760  64.4920770  12.0570650  35.2988760  65.2559940
  13.9040850  31.2457690  60.4488680  13.7937180  30.3032020  60.5738100
  13.9009100  31.6073330  61.3351440  12.0080870  29.4271310  66.6881120
  12.4249660  29.2131420  65.8534580  12.7320690  29.6844100  67.2589740
   9.4461130  26.8723010  59.8051170   8.5190410  26.8060390  60.0339640
   9.5985950  27.8103140  59.6906410   9.4330210  23.1440010  56.8018330
   8.4933880  23.3053970  56.8870790   9.7513470  23.8625690  56.2554320
  15.9542970  27.8258530  66.7797360  15.1261600  27.8951620  66.3047490
  16.5493450  28.4112840  66.3113190  13.4758420  28.4343310  60.3086420
  12.8570840  28.0962860  59.6612720  13.4582870  27.7903070  61.0165610
  12.9184980  24.6127850  67.7252230  12.5056160  25.4381560  67.9792220
  12.1860930  24.0272890  67.5328590   5.0517770  27.3987750  62.5870900
   4.6474770  26.6865000  62.0916800   5.1380890  27.0540990  63.4758940
   5.5199470  31.0855310  64.7510110   5.2227760  30.4800780  64.0717890
   6.4699290  31.1232620  64.6399470   3.7646390  24.1730960  66.3669940
   4.3160980  24.2826300  65.5923190   4.2789900  24.5468560  67.0825170
  13.6085080  34.6587180  68.4133210  13.1315640  35.4659370  68.2205820
  12.9246870  34.0065510  68.5659420  11.6523120  27.6730120  57.3159170
  12.0916400  26.8352550  57.1696990  12.3651540  28.3059520  57.4023310
   9.7618500  32.6126190  61.2840410  10.2014410  33.3550520  60.8695800
   9.7005390  32.8552760  62.2079370  15.2340260  18.9272930  55.6300210
  14.9212920  19.0199760  56.5299280  15.9952730  19.5053960  55.5797640
  10.4534280  35.3139970  69.2119420  10.9678950  35.2247980  70.0141850
   9.6103360  35.6599670  69.5047330  12.4288680  35.5995310  58.6403420
  12.2689820  35.3098250  59.5385250  12.2635390  34.8235440  58.1048650
   4.9077060  35.3793840  60.4175040   4.7319540  34.4629380  60.2042840
   4.0532800  35.7381130  60.6572840  12.1314810  33.1082870  57.2001420
  11.4379970  33.1060160  56.5403700  12.8737670  32.6842190  56.7695590
  11.6964740  34.7345580  61.2749910  12.1521690  33.9534960  61.5888530
  12.0357260  35.4452400  61.8191090   4.2186060  19.6367800  63.4701220
   3.7754210  20.4177340  63.1385740   4.7771050  19.9597690  64.1772160
   8.5055870  22.5036320  69.0736540   8.0435240  22.7119340  69.8856480
   8.1033980  21.6895670  68.7707210   7.3344880  19.2578500  58.3507050
   6.7099060  19.2538370  59.0760360   7.2475000  18.3909460  57.9543020
   6.2561960  20.1815130  65.3290820   6.5534290  21.0877960  65.2482840
   6.8047520  19.6933910  64.7150390   4.0100280  24.7601370  61.1982470
   3.7841200  24.5438540  62.1029090   3.2292810  25.1929830  60.8528440
  11.2398040  24.7664740  59.7973120  10.6406930  25.4900540  59.6136740
  11.7877650  24.7041520  59.0149570   9.8462910  23.4028280  61.8276400
  10.2392480  23.7200480  61.0145090  10.2079760  22.5240160  61.9420920
  10.4318050  25.9934030  65.9227180   9.6999170  26.5020840  66.2717280
  10.0342390  25.1764010  65.6215960   6.8695440  22.6688230  64.3279670
   6.8731500  22.2278180  63.4784210   7.7646560  22.9905560  64.4351490
   2.7197820  22.5514720  63.2873880   2.3797870  23.0289950  64.0440930
   1.9575140  22.0979840  62.9274980   6.9315590  23.6700310  57.3186430
   7.0528410  23.6286790  58.2672250   6.5464100  24.5324460  57.1633160
  10.8943960  21.4467710  65.3350120  10.9116700  21.8976360  66.1791970
  10.6459540  20.5473350  65.5483560   5.9437090  25.9801450  56.7169730
   5.3753990  25.5319700  56.0905640   6.6526090  26.3394230  56.1834880
   7.1703410  26.7290010  66.0745080   7.5373540  26.2548580  66.8206420
   6.9808470  27.6031580  66.4153420   4.9602780  25.7698650  68.3929290
   4.6559850  26.6490630  68.6179650   5.9149240  25.8298440  68.4286730
   3.4884570  29.9759640  58.9896140   2.7146830  29.4357260  58.8294860
   4.2179200  29.4566250  58.6513900  14.2472550  28.9725000  64.7822530
  14.9671670  29.4680290  64.3918640  14.0454370  28.2942890  64.1376400
   9.7082490  20.3662960  58.9251920   8.8947100  19.8676130  58.8497230
   9.5144440  21.2061210  58.5088270  12.4230880  24.7382610  57.2214080
  13.3110500  25.0499840  57.0465420  12.3935970  23.8654860  56.8294660
   3.5321970  29.6440020  62.6274950   4.0500640  28.8408280  62.5731840
   3.0805990  29.5819160  63.4691780   8.4191470  30.9106300  57.9002250
   8.7607170  31.6548530  57.4045570   7.5904180  31.2237420  58.2627080
  14.6945150  26.0494450  56.6893940  14.6108870  26.4808670  55.8390380
  15.4139340  26.5092800  57.1220760  15.7719290  28.5061970  69.7663910
  15.0467480  29.0990750  69.5693300  16.2994750  28.4985510  68.9677280
  15.7232400  32.9036710  59.4176070  15.0808560  32.2492330  59.6919790
  15.3363060  33.3091800  58.6416740  11.3018880  30.2322140  63.2647760
  11.6542700  29.6350270  62.6049130  10.4181210  29.9066370  63.4356010
   7.3882160  30.9919830  60.6718170   8.0753290  31.5389040  61.0525760
   6.6014580  31.5360560  60.7067780   6.6909370  27.9965860  60.2843530
   7.1472150  28.8071110  60.5103720   6.3397580  27.6789000  61.1162020
   8.9941980  33.5072200  67.5135830   9.6384200  33.7131580  68.1909250
   9.3571420  32.7460600  67.0606680   2.5921150  18.3403510  60.7566050
   2.4635780  18.3321410  61.7050970   1.7683170  18.6786600  60.4057060
  10.2674060  31.5104550  66.2313280  10.9096290  30.8097710  66.3445450
  10.7923410  32.2902990  66.0510170  14.1129780  31.7953170  55.9552420
  13.8867360  31.0783610  56.5477060  13.7225980  31.5465610  55.1174170
  12.0411680  32.3099450  69.4349340  12.3767920  32.8966140  70.1127260
  11.1212020  32.1792160  69.6647130  13.6946030  29.7125110  57.6166580
  13.4067730  30.1737800  58.4044460  14.4898200  29.2522880  57.8850800
   5.9114430  33.2051230  57.5470550   5.9024530  33.9380920  56.9315060
   4.9912790  32.9582810  57.6397510  11.0853860  22.5916940  67.9674200
  11.4534680  21.7712150  68.2953770  10.2252060  22.6518830  68.3829850
  14.4515890  21.5473880  58.7761760  13.8229050  21.6519550  58.0619990
  13.9567810  21.7670660  59.5655640   8.8974030  33.2679470  56.2095740
   8.9986010  33.0643460  55.2797720   7.9975770  33.0137750  56.4143520
   6.4199920  23.8259830  60.1919640   5.7116070  24.2946170  60.6333250
   6.7044400  23.1681840  60.8264830   8.0455850  25.2456530  68.1912170
   8.5441100  25.7202350  68.8564020   8.1878800  24.3220050  68.3982200
  10.4515350  20.5510490  61.6315430  10.3283130  20.5696620  60.6824940
  11.3999910  20.5989430  61.7513830   7.5392140  35.7865790  60.9043410
   7.7933640  35.7487180  59.9822780   6.5904620  35.6599120  60.8971660
   4.6234940  22.1344910  57.5670350   5.4725470  22.5715060  57.5010540
   4.2566210  22.4465170  58.3942410  15.2522710  21.4624490  69.0340560
  14.7496310  22.2029890  69.3734370  16.0679370  21.8508490  68.7177350
  13.5444720  26.7057670  62.4801920  12.6034860  26.7207900  62.6549610
  13.8588790  25.9193630  62.9262220   3.5226360  28.3877270  56.0405880
   4.2889630  28.2758630  56.6031310   3.6001050  27.6915240  55.3882650
   2.2173120  25.8202340  56.7238770   2.2976710  24.8729850  56.8356170
   3.1092870  26.1509220  56.8299430  15.5470300  33.8766520  64.1556180
  15.6717720  34.6997690  64.6279990  16.4135860  33.6657250  63.8080330
   3.0187830  35.9697730  63.8273310   3.7550310  35.4213190  64.0981880
   3.4028750  36.8353740  63.6879300   6.1290140  35.1428040  55.6498880
   6.9218750  35.4316870  55.1980670   5.6094490  34.7120210  54.9711360
  15.1820310  34.3698170  57.0735620  14.8961820  33.9563310  56.2589800
  14.9839860  35.2985880  56.9536140   6.6467540  30.3631450  55.5141230
   6.5418180  29.7483800  56.2402610   6.4791760  29.8397340  54.7304240
   9.8870270  29.4251480  56.1183220   9.3380370  29.8720780  56.7625960
  10.5089530  28.9200730  56.6420890   5.5545390  28.3842400  58.0148520
   5.9761810  28.2182270  58.8579910   5.6796230  27.5742630  57.5203660
   8.0673030  27.4080010  55.2625620   8.5878690  26.6929030  54.8966770
   8.7141430  28.0465880  55.5626130   6.9706550  19.8874560  67.9344180
   6.5223850  19.9098820  67.0889730   6.3371750  19.4893580  68.5314480
   7.3766100  28.7828890  68.5556620   7.7954210  29.6261620  68.3832860
   6.4574730  28.9200930  68.3263400  12.0517900  27.0682260  68.5156970
  11.5253120  27.5924880  67.9122110  12.3949240  27.7009650  69.1466700
   4.4504290  24.4575630  54.9606680   4.2493350  23.5942990  55.3220020
   4.2796340  24.3708990  54.0228280   5.2273520  35.0881900  69.6714350
   4.6894610  35.8127960  69.3523050   5.4807480  34.6112240  68.8811690
  11.9292600  19.2683860  57.4893560  12.2094890  18.4251760  57.8452980
  11.1558330  19.5006970  58.0032310   3.2487090  21.5576250  54.9484560
   3.5512990  21.5643680  54.0403710   3.9881680  21.2074110  55.4452220
   8.0835730  36.3233110  69.9301000   8.0094430  37.2268250  70.2373370
   7.1814570  36.0045010  69.9023070   6.4672020  20.5010870  55.9340760
   6.1194020  19.8234860  55.3543210   6.6684790  20.0400380  56.7484150
   8.6321060  35.4891620  57.5527360   9.5271850  35.8276590  57.5746120
   8.6638690  34.7671030  56.9251640   2.2717220  30.8618670  55.7814360
   2.7092090  31.4048340  56.4371940   2.7564950  30.0365620  55.7910700
   4.0824940  31.9816710  60.8936590   3.7820480  31.8581680  61.7940500
   3.9762430  31.1225300  60.4852320  16.8516860  31.7613110  55.5963270
  16.0209820  31.8289760  56.0670500  17.0288690  32.6517230  55.2930130
  16.3073320  28.5060590  58.0997470  17.0692230  29.0757240  58.2057160
  16.3227690  27.9387790  58.8705780  17.3133290  29.3610690  62.9439400
  17.6842120  28.5778010  62.5375370  17.9535220  30.0499790  62.7656700
  14.2967050  30.7447270  68.3569720  13.4826890  31.1744430  68.6195510
  14.7041250  31.3565680  67.7438770  16.3592490  28.7994960  55.2569990
  16.6341330  29.7073840  55.1289210  16.1703230  28.7357490  56.1931980
  12.7568100  21.8239810  56.5523620  13.1752980  21.6370790  55.7120280
  12.4504160  20.9718860  56.8626550  16.2557830  26.7363950  60.2499420
  15.8801430  25.9691880  59.8180710  15.5260950  27.1186650  60.7374350
  15.6457450  25.8835470  69.8838940  15.4143540  25.6548220  68.9836890
  15.9062000  26.8035020  69.8383830  15.5308790  24.9621440  63.5506660
  16.0546270  24.4684090  62.9196830  16.1168210  25.0971800  64.2954230
  15.7098510  25.0461310  67.0726210  14.7601220  25.0124850  67.1871200
  15.8911520  25.9561420  66.8375980  15.0208760  24.2194790  59.4899070
  15.5167880  23.9865660  60.2747950  14.8224830  23.3806630  59.0736710
  16.4495920  22.8555740  62.0236750  16.3395200  22.7011780  62.9619020
  17.2103510  22.3276680  61.7812160  14.7961640  18.7949870  68.4819750
  15.4333860  19.4084010  68.8478940  14.9436530  18.8310530  67.5368980
  17.3386190  20.6863660  55.2642890  18.2635500  20.5544840  55.0561180
  17.3161980  20.7656480  56.2179340  17.4124680  21.4574320  57.8899600
  16.6176180  21.3919440  58.4192510  17.6167960  22.3924960  57.8784950
  14.3543100  35.4965870  61.8837990  14.9502170  35.1750440  61.2072410
  14.6121250  35.0237690  62.6751260   5.9611700  33.4843370  67.6338340
   5.7203060  33.7517930  66.7468860   6.9014340  33.6549100  67.6889200
  17.2215860  35.5037750  68.4348980  16.7274140  35.9006620  67.7176110
  16.6129150  34.8786960  68.8286260  11.5448720  18.1678260  67.3556430
  10.6708560  18.5013370  67.1529360  11.4359470  17.6951440  68.1808300
  12.4520700  20.3749130  68.7398150  12.1234060  19.5600890  68.3599880
  13.4003000  20.3318940  68.6163840  14.9055310  36.1461170  65.7135720
  14.4458280  36.8976980  65.3393740  14.2767770  35.4267640  65.6550520
   5.3351030  34.4549410  64.8883850   5.8516050  33.8436770  64.3632110
   5.9848410  34.9578190  65.3794860   8.0746530  35.3457900  65.7152830
   8.3624340  35.0912200  64.8385840   8.5869750  34.7935260  66.3058400
   9.2923540  19.0848100  66.2949340   8.5095330  19.5593600  66.5746100
   8.9986470  18.1802930  66.1862520  13.8444610  19.7871200  64.3398430
  14.2852700  19.7316300  63.4920030  13.5752200  20.7029210  64.4108610
  15.7083180  19.4186440  62.3507250  15.6471580  18.4747660  62.2038270
  16.4875210  19.5266530  62.8960710   7.1777760  21.5034850  61.8065370
   6.3652270  21.1291740  61.4661250   7.6819400  20.7479930  62.1086560
  11.6802740  18.1677300  63.0448440  12.2832110  18.7397510  63.5196960
  10.9395730  18.7316740  62.8222340  14.8237340  18.5698860  58.3188720
  15.0187970  19.4682310  58.5856150  14.0367210  18.3385940  58.8121670
   3.0089100  19.9159630  57.3565030   3.5381860  19.1289430  57.2272980
   3.6417420  20.5950820  57.5900560   5.2026940  19.6534770  60.4110420
   4.5729680  18.9522080  60.5780550   4.6632080  20.4138900  60.1943580
  16.3763950  35.8099570  60.0795280  16.5516140  35.1237310  59.4356200
  15.6785520  36.3346620  59.6871950   4.2191600  36.1994410  57.6330590
   4.9510420  35.9153690  57.0854480   4.4785270  35.9607690  58.5229970
   3.3806390  32.3159140  57.6376920   2.7515270  32.7844240  58.1862750
   3.4954220  31.4708360  58.0723110  10.8356110  26.3664800  43.7878120
  10.7550160  25.4519410  43.5169830  10.4220530  26.8631870  43.0817830
   8.9674150  28.1443820  45.6687390   8.1916250  27.6644260  45.9585960
   9.6187080  27.4649470  45.4943550   2.9839980  28.4563630  46.5463150
   2.1524860  28.2012340  46.9459660   3.5920960  28.5274400  47.2821070
  12.9881580  32.5504010  44.4486520  12.5263110  31.7791250  44.7773690
  13.8007130  32.5770080  44.9538970   2.9641240  32.4903720  46.7421170
   3.2669280  31.6001460  46.5631390   3.7084830  33.0473940  46.5143420
   9.2144890  34.8362020  44.0690510   8.5956330  35.2919520  43.4984950
  10.0696670  34.9913480  43.6680210   8.4083140  30.8201010  45.6757550
   8.3391420  29.8790950  45.5146680   9.1703000  30.9102420  46.2480120
   9.4388310  23.6271390  45.9026480   9.8153130  22.7543270  45.7900150
   9.3407820  23.9630090  45.0116920   3.5693320  21.9997020  41.3643920
   3.6760070  22.9000750  41.6712680   2.6585680  21.9514990  41.0738570
  13.2212430  21.1221830  42.8354820  14.0422050  20.6318400  42.8780300
  13.2546510  21.7119490  43.5886660   5.4101050  24.9683390  45.6969100
   5.9179270  25.4664360  46.3374120   5.9414290  24.1918590  45.5208460
  17.5111980  23.1388580  49.3998450  16.8064150  23.5270290  48.8813560
  17.7769900  23.8338870  50.0019380   3.6937150  19.6081950  49.9632520
   3.6955590  20.1254340  49.1578420   2.8641460  19.1312130  49.9402450
  10.0808240  29.7201260  41.4622420   9.4625510  30.1850710  40.8985140
  10.5931490  30.4128740  41.8791930   4.9440000  29.2477130  48.1406020
   4.6109380  29.8746050  48.7827090   5.1206680  29.7739010  47.3607690
  13.4573910  23.0622210  45.6082360  12.7529480  23.3507100  46.1885470
  13.8186070  23.8722320  45.2481920   3.3752480  21.3191910  47.9702970
   3.7169290  22.1633960  47.6756840   2.4368290  21.4675650  48.0868310
   4.1559100  31.2157930  49.9555200   4.7733100  31.8909010  49.6739650
   3.2952220  31.6245910  49.8642700  15.0736690  32.6797340  47.8709840
  14.3900210  33.3496450  47.8626510  15.6130980  32.8777990  47.1054700
  16.5260830  22.5077000  45.9991570  15.5785740  22.5415980  46.1307000
  16.8510820  23.3215950  46.3840930   7.0580370  18.8074180  44.2947560
   7.3655350  18.2521070  43.5783060   6.1281070  18.9418640  44.1120550
  12.6095430  34.5241470  46.5855020  12.6222590  34.1203760  45.7177280
  12.0570650  35.2988760  46.4816450  13.9040850  31.2457690  41.6745190
  13.7937180  30.3032020  41.7994610  13.9009100  31.6073330  42.5607950
  12.0080870  29.4271310  47.9137630  12.4249660  29.2131420  47.0791090
  12.7320690  29.6844100  48.4846250   9.4461130  26.8723010  41.0307680
   8.5190410  26.8060390  41.2596150   9.5985950  27.8103140  40.9162920
   9.4330210  23.1440010  38.0274840   8.4933880  23.3053970  38.1127300
   9.7513470  23.8625690  37.4810830  15.9542970  27.8258530  48.0053870
  15.1261600  27.8951620  47.5304000  16.5493450  28.4112840  47.5369700
  13.4758420  28.4343310  41.5342930  12.8570840  28.0962860  40.8869230
  13.4582870  27.7903070  42.2422120  12.9184980  24.6127850  48.9508740
  12.5056160  25.4381560  49.2048730  12.1860930  24.0272890  48.7585100
   5.0517770  27.3987750  43.8127410   4.6474770  26.6865000  43.3173310
   5.1380890  27.0540990  44.7015450   5.5199470  31.0855310  45.9766620
   5.2227760  30.4800780  45.2974400   6.4699290  31.1232620  45.8655980
   3.7646390  24.1730960  47.5926450   4.3160980  24.2826300  46.8179700
   4.2789900  24.5468560  48.3081680  13.6085080  34.6587180  49.6389720
  13.1315640  35.4659370  49.4462330  12.9246870  34.0065510  49.7915930
   4.6117900  30.8237000  52.6274420   3.7146430  31.0476970  52.8747820
   4.6370770  30.9471940  51.6785820  11.6523120  27.6730120  38.5415680
  12.0916400  26.8352550  38.3953500  12.3651540  28.3059520  38.6279820
   3.4389120  27.6950320  51.2031790   3.2996890  28.5673120  51.5719190
   2.5570480  27.3523130  51.0579730   9.7618500  32.6126190  42.5096920
  10.2014410  33.3550520  42.0952310   9.7005390  32.8552760  43.4335880
   5.2369470  33.6372020  53.4116940   5.2084900  34.0414970  52.5445370
   5.0734440  32.7082380  53.2488540  15.2340260  18.9272930  36.8556720
  14.9212920  19.0199760  37.7555790  15.9952730  19.5053960  36.8054150
  17.1884290  34.4199120  54.7081110  17.6644010  34.8982010  55.3870190
  17.8091450  34.3516610  53.9826610  16.5917540  31.6111970  51.8681120
  16.7180600  31.3723850  50.9498300  16.6338920  30.7796510  52.3403200
  10.4534280  35.3139970  50.4375930  10.9678950  35.2247980  51.2398360
   9.6103360  35.6599670  50.7303840  12.4288680  35.5995310  39.8659930
  12.2689820  35.3098250  40.7641760  12.2635390  34.8235440  39.3305160
   4.9077060  35.3793840  41.6431550   4.7319540  34.4629380  41.4299350
   4.0532800  35.7381130  41.8829350  12.1314810  33.1082870  38.4257930
  11.4379970  33.1060160  37.7660210  12.8737670  32.6842190  37.9952100
  11.6964740  34.7345580  42.5006420  12.1521690  33.9534960  42.8145040
  12.0357260  35.4452400  43.0447600  16.4441550  23.6644430  52.8330860
  15.8285820  24.1724100  52.3046320  16.1237970  22.7642760  52.7756800
   4.2186060  19.6367800  44.6957730   3.7754210  20.4177340  44.3642250
   4.7771050  19.9597690  45.4028670   8.5055870  22.5036320  50.2993050
   8.0435240  22.7119340  51.1112990   8.1033980  21.6895670  49.9963720
  13.5060380  23.7245270  51.4289710  12.6553970  23.4251020  51.7498780
  13.3462170  23.9687280  50.5173530  10.6010090  25.2247020  53.5288500
  10.9263500  24.3910770  53.1890730  11.3890420  25.7475540  53.6766830
   7.3344880  19.2578500  39.5763560   6.7099060  19.2538370  40.3016870
   7.2475000  18.3909460  39.1799530   6.2561960  20.1815130  46.5547330
   6.5534290  21.0877960  46.4739350   6.8047520  19.6933910  45.9406900
   4.0100280  24.7601370  42.4238980   3.7841200  24.5438540  43.3285600
   3.2292810  25.1929830  42.0784950  11.2398040  24.7664740  41.0229630
  10.6406930  25.4900540  40.8393250  11.7877650  24.7041520  40.2406080
   6.4499490  25.6586950  53.0899250   6.3543090  24.7181680  52.9399650
   7.2931470  25.8802020  52.6947320   9.8462910  23.4028280  43.0532910
  10.2392480  23.7200480  42.2401600  10.2079760  22.5240160  43.1677430
   8.1555080  22.1535590  54.3129770   7.4653400  21.9607790  54.9475860
   8.8987380  22.4370230  54.8454070  10.4318050  25.9934030  47.1483690
   9.6999170  26.5020840  47.4973790  10.0342390  25.1764010  46.8472470
   6.8695440  22.6688230  45.5536180   6.8731500  22.2278180  44.7040720
   7.7646560  22.9905560  45.6608000   2.7197820  22.5514720  44.5130390
   2.3797870  23.0289950  45.2697440   1.9575140  22.0979840  44.1531490
   6.9315590  23.6700310  38.5442940   7.0528410  23.6286790  39.4928760
   6.5464100  24.5324460  38.3889670  10.8943960  21.4467710  46.5606630
  10.9116700  21.8976360  47.4048480  10.6459540  20.5473350  46.7740070
   5.9437090  25.9801450  37.9426240   5.3753990  25.5319700  37.3162150
   6.6526090  26.3394230  37.4091390  14.3214710  18.8599890  52.3993010
  14.6460480  18.1289550  52.9250990  14.3571220  18.5413530  51.4974000
   7.1703410  26.7290010  47.3001590   7.5373540  26.2548580  48.0462930
   6.9808470  27.6031580  47.6409930   4.9602780  25.7698650  49.6185800
   4.6559850  26.6490630  49.8436160   5.9149240  25.8298440  49.6543240
   3.4884570  29.9759640  40.2152650   2.7146830  29.4357260  40.0551370
   4.2179200  29.4566250  39.8770410  14.2472550  28.9725000  46.0079040
  14.9671670  29.4680290  45.6175150  14.0454370  28.2942890  45.3632910
   9.7082490  20.3662960  40.1508430   8.8947100  19.8676130  40.0753740
   9.5144440  21.2061210  39.7344780   9.6291350  29.0434060  51.8948040
   9.5628660  28.1229730  51.6405630   8.9996490  29.1409500  52.6092680
  12.4230880  24.7382610  38.4470590  13.3110500  25.0499840  38.2721930
  12.3935970  23.8654860  38.0551170   3.5321970  29.6440020  43.8531460
   4.0500640  28.8408280  43.7988350   3.0805990  29.5819160  44.6948290
   8.4191470  30.9106300  39.1258760   8.7607170  31.6548530  38.6302080
   7.5904180  31.2237420  39.4883590   4.2179630  27.0685630  53.6496710
   3.9179770  27.2142810  52.7524530   4.9890870  26.5090920  53.5570100
   9.5608080  31.8654630  51.6451840   9.5752620  30.9335590  51.4270750
   8.8533180  31.9514390  52.2841610  14.6945150  26.0494450  37.9150450
  14.6108870  26.4808670  37.0646890  15.4139340  26.5092800  38.3477270
  15.7719290  28.5061970  50.9920420  15.0467480  29.0990750  50.7949810
  16.2994750  28.4985510  50.1933790  15.7232400  32.9036710  40.6432580
  15.0808560  32.2492330  40.9176300  15.3363060  33.3091800  39.8673250
  11.3018880  30.2322140  44.4904270  11.6542700  29.6350270  43.8305640
  10.4181210  29.9066370  44.6612520   7.3882160  30.9919830  41.8974680
   8.0753290  31.5389040  42.2782270   6.6014580  31.5360560  41.9324290
   6.6909370  27.9965860  41.5100040   7.1472150  28.8071110  41.7360230
   6.3397580  27.6789000  42.3418530   8.9941980  33.5072200  48.7392340
   9.6384200  33.7131580  49.4165760   9.3571420  32.7460600  48.2863190
   2.5921150  18.3403510  41.9822560   2.4635780  18.3321410  42.9307480
   1.7683170  18.6786600  41.6313570  10.2674060  31.5104550  47.4569790
  10.9096290  30.8097710  47.5701960  10.7923410  32.2902990  47.2766680
  14.1129780  31.7953170  37.1808930  13.8867360  31.0783610  37.7733570
  13.7225980  31.5465610  36.3430680  12.0411680  32.3099450  50.6605850
  12.3767920  32.8966140  51.3383770  11.1212020  32.1792160  50.8903640
  13.6946030  29.7125110  38.8423090  13.4067730  30.1737800  39.6300970
  14.4898200  29.2522880  39.1107310   7.8700260  32.3590780  53.8293910
   7.5497130  31.6400020  54.3739600   7.1958620  33.0345850  53.9029970
   5.9114430  33.2051230  38.7727060   5.9024530  33.9380920  38.1571570
   4.9912790  32.9582810  38.8654020  11.0853860  22.5916940  49.1930710
  11.4534680  21.7712150  49.5210280  10.2252060  22.6518830  49.6086360
  14.4515890  21.5473880  40.0018270  13.8229050  21.6519550  39.2876500
  13.9567810  21.7670660  40.7912150   8.8974030  33.2679470  37.4352250
   8.9986010  33.0643460  36.5054230   7.9975770  33.0137750  37.6400030
   6.4199920  23.8259830  41.4176150   5.7116070  24.2946170  41.8589760
   6.7044400  23.1681840  42.0521340   8.0455850  25.2456530  49.4168680
   8.5441100  25.7202350  50.0820530   8.1878800  24.3220050  49.6238710
  10.4515350  20.5510490  42.8571940  10.3283130  20.5696620  41.9081450
  11.3999910  20.5989430  42.9770340   7.5392140  35.7865790  42.1299920
   7.7933640  35.7487180  41.2079290   6.5904620  35.6599120  42.1228170
   4.6234940  22.1344910  38.7926860   5.4725470  22.5715060  38.7267050
   4.2566210  22.4465170  39.6198920  15.2522710  21.4624490  50.2597070
  14.7496310  22.2029890  50.5990880  16.0679370  21.8508490  49.9433860
  13.5444720  26.7057670  43.7058430  12.6034860  26.7207900  43.8806120
  13.8588790  25.9193630  44.1518730   3.5226360  28.3877270  37.2662390
   4.2889630  28.2758630  37.8287820   3.6001050  27.6915240  36.6139160
   2.2173120  25.8202340  37.9495280   2.2976710  24.8729850  38.0612680
   3.1092870  26.1509220  38.0555940  15.5470300  33.8766520  45.3812690
  15.6717720  34.6997690  45.8536500  16.4135860  33.6657250  45.0336840
   3.0187830  35.9697730  45.0529820   3.7550310  35.4213190  45.3238390
   3.4028750  36.8353740  44.9135810   6.1290140  35.1428040  36.8755390
   6.9218750  35.4316870  36.4237180   5.6094490  34.7120210  36.1967870
  10.8610740  31.2623670  54.1890810  10.2548900  31.2855270  53.4486560
  10.5564850  30.5306710  54.7258060  12.2911110  34.9903960  52.8000220
  13.2432860  34.9061980  52.7500460  12.1439330  35.6545670  53.4734010
  15.1820310  34.3698170  38.2992130  14.8961820  33.9563310  37.4846310
  14.9839860  35.2985880  38.1792650   6.6467540  30.3631450  36.7397740
   6.5418180  29.7483800  37.4659120   6.4791760  29.8397340  35.9560750
   6.7981860  29.0488250  52.7186970   6.0327530  29.6173250  52.6341640
   6.9797820  28.7564460  51.8255200   9.8870270  29.4251480  37.3439730
   9.3380370  29.8720780  37.9882470  10.5089530  28.9200730  37.8677400
  13.9405210  30.7793580  53.2761990  14.6814680  31.1169340  52.7729450
  13.1777890  30.9485640  52.7231760   1.7767000  25.7846850  54.0801520
   1.8172340  25.4860720  54.9886750   2.6312500  26.1854460  53.9209040
   5.5545390  28.3842400  39.2405030   5.9761810  28.2182270  40.0836420
   5.6796230  27.5742630  38.7460170   3.7172810  24.3638950  52.0476010
   3.1869270  23.8729900  51.4199350   4.3860880  24.7923150  51.5133940
   8.0673030  27.4080010  36.4882130   8.5878690  26.6929030  36.1223280
   8.7141430  28.0465880  36.7882640  12.6150870  28.8308410  51.8117200
  13.0291890  28.9853490  52.6607620  11.6801870  28.9563630  51.9742980
  13.0873040  26.1704570  53.8156350  13.6693810  25.4156890  53.7276830
  13.2634810  26.7012010  53.0387830   4.2045110  21.3301320  52.1273300
   4.1101980  20.7122070  51.4024170   3.6242500  22.0567610  51.9003210
   6.9706550  19.8874560  49.1600690   6.5223850  19.9098820  48.3146240
   6.3371750  19.4893580  49.7570990   7.3766100  28.7828890  49.7813130
   7.7954210  29.6261620  49.6089370   6.4574730  28.9200930  49.5519910
   9.7130000  26.5145070  51.1650970   9.8326210  25.9186210  51.9045810
  10.5724000  26.5514760  50.7452270  12.0517900  27.0682260  49.7413480
  11.5253120  27.5924880  49.1378620  12.3949240  27.7009650  50.3723210
   4.4504290  24.4575630  36.1863190   4.2493350  23.5942990  36.5476530
   4.2796340  24.3708990  35.2484790   5.2273520  35.0881900  50.8970860
   4.6894610  35.8127960  50.5779560   5.4807480  34.6112240  50.1068200
   6.4798770  23.0566420  52.4226790   7.0698460  22.7482270  53.1104610
   5.6619010  22.5846170  52.5786690  11.2992200  22.6732230  52.6559810
  10.6107720  22.0113770  52.5909800  12.0198220  22.2270500  53.1008270
  11.9292600  19.2683860  38.7150070  12.2094890  18.4251760  39.0709490
  11.1558330  19.5006970  39.2288820   3.2487090  21.5576250  36.1741070
   3.5512990  21.5643680  35.2660220   3.9881680  21.2074110  36.6708730
   8.0835730  36.3233110  51.1557510   8.0094430  37.2268250  51.4629880
   7.1814570  36.0045010  51.1279580   6.4672020  20.5010870  37.1597270
   6.1194020  19.8234860  36.5799720   6.6684790  20.0400380  37.9740660
   8.6321060  35.4891620  38.7783870   9.5271850  35.8276590  38.8002630
   8.6638690  34.7671030  38.1508150   2.2717220  30.8618670  37.0070870
   2.7092090  31.4048340  37.6628450   2.7564950  30.0365620  37.0167210
   4.0824940  31.9816710  42.1193100   3.7820480  31.8581680  43.0197010
   3.9762430  31.1225300  41.7108830  15.6115410  34.0195290  51.4850070
  15.0117400  34.0787850  50.7413990  15.7409310  33.0800270  51.6146920
  16.8516860  31.7613110  36.8219780  16.0209820  31.8289760  37.2927010
  17.0288690  32.6517230  36.5186640  16.3073320  28.5060590  39.3253980
  17.0692230  29.0757240  39.4313670  16.3227690  27.9387790  40.0962290
  17.3133290  29.3610690  44.1695910  17.6842120  28.5778010  43.7631880
  17.9535220  30.0499790  43.9913210  14.2967050  30.7447270  49.5826230
  13.4826890  31.1744430  49.8452020  14.7041250  31.3565680  48.9695280
  16.3592490  28.7994960  36.4826500  16.6341330  29.7073840  36.3545720
  16.1703230  28.7357490  37.4188490  12.7568100  21.8239810  37.7780130
  13.1752980  21.6370790  36.9376790  12.4504160  20.9718860  38.0883060
  16.2557830  26.7363950  41.4755930  15.8801430  25.9691880  41.0437220
  15.5260950  27.1186650  41.9630860  15.6457450  25.8835470  51.1095450
  15.4143540  25.6548220  50.2093400  15.9062000  26.8035020  51.0640340
  14.0845520  21.1091900  53.8875150  14.9615700  21.1175300  54.2709150
  14.0966360  20.3722740  53.2767500  15.5308790  24.9621440  44.7763170
  16.0546270  24.4684090  44.1453340  16.1168210  25.0971800  45.5210740
  15.7098510  25.0461310  48.2982720  14.7601220  25.0124850  48.4127710
  15.8911520  25.9561420  48.0632490  15.0208760  24.2194790  40.7155580
  15.5167880  23.9865660  41.5004460  14.8224830  23.3806630  40.2993220
  16.4495920  22.8555740  43.2493260  16.3395200  22.7011780  44.1875530
  17.2103510  22.3276680  43.0068670  14.7961640  18.7949870  49.7076260
  15.4333860  19.4084010  50.0735450  14.9436530  18.8310530  48.7625490
  17.3386190  20.6863660  36.4899400  18.2635500  20.5544840  36.2817690
  17.3161980  20.7656480  37.4435850  17.4124680  21.4574320  39.1156110
  16.6176180  21.3919440  39.6449020  17.6167960  22.3924960  39.1041460
  14.3543100  35.4965870  43.1094500  14.9502170  35.1750440  42.4328920
  14.6121250  35.0237690  43.9007770   2.2605670  31.9283780  53.2585130
   2.2175300  31.5576690  54.1399590   2.3916680  32.8661350  53.3986950
   5.9611700  33.4843370  48.8594850   5.7203060  33.7517930  47.9725370
   6.9014340  33.6549100  48.9145710   8.1666120  19.9476060  52.6151360
   8.1055010  20.5397890  53.3646770   9.1066500  19.8402020  52.4701620
  10.8040680  19.6046120  52.2543650  11.4181090  19.9225410  51.5924730
  11.3490240  19.1194710  52.8739510  17.2215860  35.5037750  49.6605490
  16.7274140  35.9006620  48.9432620  16.6129150  34.8786960  50.0542770
  11.5448720  18.1678260  48.5812940  10.6708560  18.5013370  48.3785870
  11.4359470  17.6951440  49.4064810  12.4520700  20.3749130  49.9654660
  12.1234060  19.5600890  49.5856390  13.4003000  20.3318940  49.8420350
  14.9055310  36.1461170  46.9392230  14.4458280  36.8976980  46.5650250
  14.2767770  35.4267640  46.8807030   5.3351030  34.4549410  46.1140360
   5.8516050  33.8436770  45.5888620   5.9848410  34.9578190  46.6051370
   8.0746530  35.3457900  46.9409340   8.3624340  35.0912200  46.0642350
   8.5869750  34.7935260  47.5314910   9.2923540  19.0848100  47.5205850
   8.5095330  19.5593600  47.8002610   8.9986470  18.1802930  47.4119030
  13.8444610  19.7871200  45.5654940  14.2852700  19.7316300  44.7176540
  13.5752200  20.7029210  45.6365120  15.7083180  19.4186440  43.5763760
  15.6471580  18.4747660  43.4294780  16.4875210  19.5266530  44.1217220
   7.1777760  21.5034850  43.0321880   6.3652270  21.1291740  42.6917760
   7.6819400  20.7479930  43.3343070  11.6802740  18.1677300  44.2704950
  12.2832110  18.7397510  44.7453470  10.9395730  18.7316740  44.0478850
  14.8237340  18.5698860  39.5445230  15.0187970  19.4682310  39.8112660
  14.0367210  18.3385940  40.0378180   3.0089100  19.9159630  38.5821540
   3.5381860  19.1289430  38.4529490   3.6417420  20.5950820  38.8157070
   5.2026940  19.6534770  41.6366930   4.5729680  18.9522080  41.8037060
   4.6632080  20.4138900  41.4200090   8.1418890  36.2674000  54.3077540
   9.0686200  36.0318270  54.3513500   8.1269320  37.0946000  53.8263570
  16.3763950  35.8099570  41.3051790  16.5516140  35.1237310  40.6612710
  15.6785520  36.3346620  40.9128460   5.3282500  18.9318750  54.0719420
   5.0466770  19.4352350  53.3080240   5.7102200  18.1340500  53.7061550
   4.2191600  36.1994410  38.8587100   4.9510420  35.9153690  38.3110990
   4.4785270  35.9607690  39.7486480   3.3806390  32.3159140  38.8633430
   2.7515270  32.7844240  39.4119260   3.4954220  31.4708360  39.2979620
  11.9297960  18.3472330  54.6499890  11.8163410  18.6666940  55.5451410
  12.7467700  18.7484840  54.3537170  14.7096450  35.4943860  54.1318580
  15.5021770  34.9993090  53.9244540  15.0029600  36.1734000  54.7394190
  10.8356110  26.3664800  25.0134630  10.7550160  25.4519410  24.7426340
  10.4220530  26.8631870  24.3074340   8.9674150  28.1443820  26.8943900
   8.1916250  27.6644260  27.1842470   9.6187080  27.4649470  26.7200060
   2.9839980  28.4563630  27.7719660   2.1524860  28.2012340  28.1716170
   3.5920960  28.5274400  28.5077580  12.9881580  32.5504010  25.6743030
  12.5263110  31.7791250  26.0030200  13.8007130  32.5770080  26.1795480
   2.9641240  32.4903720  27.9677680   3.2669280  31.6001460  27.7887900
   3.7084830  33.0473940  27.7399930   9.2144890  34.8362020  25.2947020
   8.5956330  35.2919520  24.7241460  10.0696670  34.9913480  24.8936720
   8.4083140  30.8201010  26.9014060   8.3391420  29.8790950  26.7403190
   9.1703000  30.9102420  27.4736630   9.4388310  23.6271390  27.1282990
   9.8153130  22.7543270  27.0156660   9.3407820  23.9630090  26.2373430
   3.5693320  21.9997020  22.5900430   3.6760070  22.9000750  22.8969190
   2.6585680  21.9514990  22.2995080  13.2212430  21.1221830  24.0611330
  14.0422050  20.6318400  24.1036810  13.2546510  21.7119490  24.8143170
   5.4101050  24.9683390  26.9225610   5.9179270  25.4664360  27.5630630
   5.9414290  24.1918590  26.7464970  17.5111980  23.1388580  30.6254960
  16.8064150  23.5270290  30.1070070  17.7769900  23.8338870  31.2275890
   3.6937150  19.6081950  31.1889030   3.6955590  20.1254340  30.3834930
   2.8641460  19.1312130  31.1658960  10.0808240  29.7201260  22.6878930
   9.4625510  30.1850710  22.1241650  10.5931490  30.4128740  23.1048440
   4.9440000  29.2477130  29.3662530   4.6109380  29.8746050  30.0083600
   5.1206680  29.7739010  28.5864200  13.4573910  23.0622210  26.8338870
  12.7529480  23.3507100  27.4141980  13.8186070  23.8722320  26.4738430
   3.3752480  21.3191910  29.1959480   3.7169290  22.1633960  28.9013350
   2.4368290  21.4675650  29.3124820   4.1559100  31.2157930  31.1811710
   4.7733100  31.8909010  30.8996160   3.2952220  31.6245910  31.0899210
  15.0736690  32.6797340  29.0966350  14.3900210  33.3496450  29.0883020
  15.6130980  32.8777990  28.3311210  16.5260830  22.5077000  27.2248080
  15.5785740  22.5415980  27.3563510  16.8510820  23.3215950  27.6097440
   7.0580370  18.8074180  25.5204070   7.3655350  18.2521070  24.8039570
   6.1281070  18.9418640  25.3377060  12.6095430  34.5241470  27.8111530
  12.6222590  34.1203760  26.9433790  12.0570650  35.2988760  27.7072960
  13.9040850  31.2457690  22.9001700  13.7937180  30.3032020  23.0251120
  13.9009100  31.6073330  23.7864460  12.0080870  29.4271310  29.1394140
  12.4249660  29.2131420  28.3047600  12.7320690  29.6844100  29.7102760
   9.4461130  26.8723010  22.2564190   8.5190410  26.8060390  22.4852660
   9.5985950  27.8103140  22.1419430   9.4330210  23.1440010  19.2531350
   8.4933880  23.3053970  19.3383810   9.7513470  23.8625690  18.7067340
  15.9542970  27.8258530  29.2310380  15.1261600  27.8951620  28.7560510
  16.5493450  28.4112840  28.7626210  13.4758420  28.4343310  22.7599440
  12.8570840  28.0962860  22.1125740  13.4582870  27.7903070  23.4678630
  12.9184980  24.6127850  30.1765250  12.5056160  25.4381560  30.4305240
  12.1860930  24.0272890  29.9841610   5.0517770  27.3987750  25.0383920
   4.6474770  26.6865000  24.5429820   5.1380890  27.0540990  25.9271960
   5.5199470  31.0855310  27.2023130   5.2227760  30.4800780  26.5230910
   6.4699290  31.1232620  27.0912490   3.7646390  24.1730960  28.8182960
   4.3160980  24.2826300  28.0436210   4.2789900  24.5468560  29.5338190
  13.6085080  34.6587180  30.8646230  13.1315640  35.4659370  30.6718840
  12.9246870  34.0065510  31.0172440   4.6117900  30.8237000  33.8530930
   3.7146430  31.0476970  34.1004330   4.6370770  30.9471940  32.9042330
  11.6523120  27.6730120  19.7672190  12.0916400  26.8352550  19.6210010
  12.3651540  28.3059520  19.8536330   3.4389120  27.6950320  32.4288300
   3.2996890  28.5673120  32.7975700   2.5570480  27.3523130  32.2836240
   9.7618500  32.6126190  23.7353430  10.2014410  33.3550520  23.3208820
   9.7005390  32.8552760  24.6592390   5.2369470  33.6372020  34.6373450
   5.2084900  34.0414970  33.7701880   5.0734440  32.7082380  34.4745050
  15.2340260  18.9272930  18.0813230  14.9212920  19.0199760  18.9812300
  15.9952730  19.5053960  18.0310660  17.1884290  34.4199120  35.9337620
  17.6644010  34.8982010  36.6126700  17.8091450  34.3516610  35.2083120
  16.5917540  31.6111970  33.0937630  16.7180600  31.3723850  32.1754810
  16.6338920  30.7796510  33.5659710  10.4534280  35.3139970  31.6632440
  10.9678950  35.2247980  32.4654870   9.6103360  35.6599670  31.9560350
  12.4288680  35.5995310  21.0916440  12.2689820  35.3098250  21.9898270
  12.2635390  34.8235440  20.5561670   4.9077060  35.3793840  22.8688060
   4.7319540  34.4629380  22.6555860   4.0532800  35.7381130  23.1085860
  12.1314810  33.1082870  19.6514440  11.4379970  33.1060160  18.9916720
  12.8737670  32.6842190  19.2208610  11.6964740  34.7345580  23.7262930
  12.1521690  33.9534960  24.0401550  12.0357260  35.4452400  24.2704110
  16.4441550  23.6644430  34.0587370  15.8285820  24.1724100  33.5302830
  16.1237970  22.7642760  34.0013310   4.2186060  19.6367800  25.9214240
   3.7754210  20.4177340  25.5898760   4.7771050  19.9597690  26.6285180
   8.5055870  22.5036320  31.5249560   8.0435240  22.7119340  32.3369500
   8.1033980  21.6895670  31.2220230  13.5060380  23.7245270  32.6546220
  12.6553970  23.4251020  32.9755290  13.3462170  23.9687280  31.7430040
  10.6010090  25.2247020  34.7545010  10.9263500  24.3910770  34.4147240
  11.3890420  25.7475540  34.9023340   7.3344880  19.2578500  20.8020070
   6.7099060  19.2538370  21.5273380   7.2475000  18.3909460  20.4056040
   6.2561960  20.1815130  27.7803840   6.5534290  21.0877960  27.6995860
   6.8047520  19.6933910  27.1663410   4.0100280  24.7601370  23.6495490
   3.7841200  24.5438540  24.5542110   3.2292810  25.1929830  23.3041460
  11.2398040  24.7664740  22.2486140  10.6406930  25.4900540  22.0649760
  11.7877650  24.7041520  21.4662590   6.4499490  25.6586950  34.3155760
   6.3543090  24.7181680  34.1656160   7.2931470  25.8802020  33.9203830
   9.8462910  23.4028280  24.2789420  10.2392480  23.7200480  23.4658110
  10.2079760  22.5240160  24.3933940   8.1555080  22.1535590  35.5386280
   7.4653400  21.9607790  36.1732370   8.8987380  22.4370230  36.0710580
  10.4318050  25.9934030  28.3740200   9.6999170  26.5020840  28.7230300
  10.0342390  25.1764010  28.0728980   6.8695440  22.6688230  26.7792690
   6.8731500  22.2278180  25.9297230   7.7646560  22.9905560  26.8864510
   2.7197820  22.5514720  25.7386900   2.3797870  23.0289950  26.4953950
   1.9575140  22.0979840  25.3788000   6.9315590  23.6700310  19.7699450
   7.0528410  23.6286790  20.7185270   6.5464100  24.5324460  19.6146180
  10.8943960  21.4467710  27.7863140  10.9116700  21.8976360  28.6304990
  10.6459540  20.5473350  27.9996580   5.9437090  25.9801450  19.1682750
   5.3753990  25.5319700  18.5418660   6.6526090  26.3394230  18.6347900
  14.3214710  18.8599890  33.6249520  14.6460480  18.1289550  34.1507500
  14.3571220  18.5413530  32.7230510   7.1703410  26.7290010  28.5258100
   7.5373540  26.2548580  29.2719440   6.9808470  27.6031580  28.8666440
   4.9602780  25.7698650  30.8442310   4.6559850  26.6490630  31.0692670
   5.9149240  25.8298440  30.8799750   3.4884570  29.9759640  21.4409160
   2.7146830  29.4357260  21.2807880   4.2179200  29.4566250  21.1026920
  14.2472550  28.9725000  27.2335550  14.9671670  29.4680290  26.8431660
  14.0454370  28.2942890  26.5889420   9.7082490  20.3662960  21.3764940
   8.8947100  19.8676130  21.3010250   9.5144440  21.2061210  20.9601290
   9.6291350  29.0434060  33.1204550   9.5628660  28.1229730  32.8662140
   8.9996490  29.1409500  33.8349190  12.4230880  24.7382610  19.6727100
  13.3110500  25.0499840  19.4978440  12.3935970  23.8654860  19.2807680
   3.5321970  29.6440020  25.0787970   4.0500640  28.8408280  25.0244860
   3.0805990  29.5819160  25.9204800   8.4191470  30.9106300  20.3515270
   8.7607170  31.6548530  19.8558590   7.5904180  31.2237420  20.7140100
   4.2179630  27.0685630  34.8753220   3.9179770  27.2142810  33.9781040
   4.9890870  26.5090920  34.7826610   9.5608080  31.8654630  32.8708350
   9.5752620  30.9335590  32.6527260   8.8533180  31.9514390  33.5098120
  14.6945150  26.0494450  19.1406960  14.6108870  26.4808670  18.2903400
  15.4139340  26.5092800  19.5733780  15.7719290  28.5061970  32.2176930
  15.0467480  29.0990750  32.0206320  16.2994750  28.4985510  31.4190300
  15.7232400  32.9036710  21.8689090  15.0808560  32.2492330  22.1432810
  15.3363060  33.3091800  21.0929760  11.3018880  30.2322140  25.7160780
  11.6542700  29.6350270  25.0562150  10.4181210  29.9066370  25.8869030
   7.3882160  30.9919830  23.1231190   8.0753290  31.5389040  23.5038780
   6.6014580  31.5360560  23.1580800   6.6909370  27.9965860  22.7356550
   7.1472150  28.8071110  22.9616740   6.3397580  27.6789000  23.5675040
   8.9941980  33.5072200  29.9648850   9.6384200  33.7131580  30.6422270
   9.3571420  32.7460600  29.5119700   2.5921150  18.3403510  23.2079070
   2.4635780  18.3321410  24.1563990   1.7683170  18.6786600  22.8570080
  10.2674060  31.5104550  28.6826300  10.9096290  30.8097710  28.7958470
  10.7923410  32.2902990  28.5023190  14.1129780  31.7953170  18.4065440
  13.8867360  31.0783610  18.9990080  13.7225980  31.5465610  17.5687190
  12.0411680  32.3099450  31.8862360  12.3767920  32.8966140  32.5640280
  11.1212020  32.1792160  32.1160150  13.6946030  29.7125110  20.0679600
  13.4067730  30.1737800  20.8557480  14.4898200  29.2522880  20.3363820
   7.8700260  32.3590780  35.0550420   7.5497130  31.6400020  35.5996110
   7.1958620  33.0345850  35.1286480   5.9114430  33.2051230  19.9983570
   5.9024530  33.9380920  19.3828080   4.9912790  32.9582810  20.0910530
  11.0853860  22.5916940  30.4187220  11.4534680  21.7712150  30.7466790
  10.2252060  22.6518830  30.8342870  14.4515890  21.5473880  21.2274780
  13.8229050  21.6519550  20.5133010  13.9567810  21.7670660  22.0168660
   8.8974030  33.2679470  18.6608760   8.9986010  33.0643460  17.7310740
   7.9975770  33.0137750  18.8656540   6.4199920  23.8259830  22.6432660
   5.7116070  24.2946170  23.0846270   6.7044400  23.1681840  23.2777850
   8.0455850  25.2456530  30.6425190   8.5441100  25.7202350  31.3077040
   8.1878800  24.3220050  30.8495220  10.4515350  20.5510490  24.0828450
  10.3283130  20.5696620  23.1337960  11.3999910  20.5989430  24.2026850
   7.5392140  35.7865790  23.3556430   7.7933640  35.7487180  22.4335800
   6.5904620  35.6599120  23.3484680   4.6234940  22.1344910  20.0183370
   5.4725470  22.5715060  19.9523560   4.2566210  22.4465170  20.8455430
  15.2522710  21.4624490  31.4853580  14.7496310  22.2029890  31.8247390
  16.0679370  21.8508490  31.1690370  13.5444720  26.7057670  24.9314940
  12.6034860  26.7207900  25.1062630  13.8588790  25.9193630  25.3775240
   3.5226360  28.3877270  18.4918900   4.2889630  28.2758630  19.0544330
   3.6001050  27.6915240  17.8395670   2.2173120  25.8202340  19.1751790
   2.2976710  24.8729850  19.2869190   3.1092870  26.1509220  19.2812450
  15.5470300  33.8766520  26.6069200  15.6717720  34.6997690  27.0793010
  16.4135860  33.6657250  26.2593350   3.0187830  35.9697730  26.2786330
   3.7550310  35.4213190  26.5494900   3.4028750  36.8353740  26.1392320
   6.1290140  35.1428040  18.1011900   6.9218750  35.4316870  17.6493690
   5.6094490  34.7120210  17.4224380  10.8610740  31.2623670  35.4147320
  10.2548900  31.2855270  34.6743070  10.5564850  30.5306710  35.9514570
  12.2911110  34.9903960  34.0256730  13.2432860  34.9061980  33.9756970
  12.1439330  35.6545670  34.6990520  15.1820310  34.3698170  19.5248640
  14.8961820  33.9563310  18.7102820  14.9839860  35.2985880  19.4049160
   6.6467540  30.3631450  17.9654250   6.5418180  29.7483800  18.6915630
   6.4791760  29.8397340  17.1817260   6.7981860  29.0488250  33.9443480
   6.0327530  29.6173250  33.8598150   6.9797820  28.7564460  33.0511710
   9.8870270  29.4251480  18.5696240   9.3380370  29.8720780  19.2138980
  10.5089530  28.9200730  19.0933910  13.9405210  30.7793580  34.5018500
  14.6814680  31.1169340  33.9985960  13.1777890  30.9485640  33.9488270
   1.7767000  25.7846850  35.3058030   1.8172340  25.4860720  36.2143260
   2.6312500  26.1854460  35.1465550   5.5545390  28.3842400  20.4661540
   5.9761810  28.2182270  21.3092930   5.6796230  27.5742630  19.9716680
   3.7172810  24.3638950  33.2732520   3.1869270  23.8729900  32.6455860
   4.3860880  24.7923150  32.7390450   8.0673030  27.4080010  17.7138640
   8.5878690  26.6929030  17.3479790   8.7141430  28.0465880  18.0139150
  12.6150870  28.8308410  33.0373710  13.0291890  28.9853490  33.8864130
  11.6801870  28.9563630  33.1999490  13.0873040  26.1704570  35.0412860
  13.6693810  25.4156890  34.9533340  13.2634810  26.7012010  34.2644340
   4.2045110  21.3301320  33.3529810   4.1101980  20.7122070  32.6280680
   3.6242500  22.0567610  33.1259720   6.9706550  19.8874560  30.3857200
   6.5223850  19.9098820  29.5402750   6.3371750  19.4893580  30.9827500
   7.3766100  28.7828890  31.0069640   7.7954210  29.6261620  30.8345880
   6.4574730  28.9200930  30.7776420   9.7130000  26.5145070  32.3907480
   9.8326210  25.9186210  33.1302320  10.5724000  26.5514760  31.9708780
  12.0517900  27.0682260  30.9669990  11.5253120  27.5924880  30.3635130
  12.3949240  27.7009650  31.5979720   4.4504290  24.4575630  17.4119700
   4.2493350  23.5942990  17.7733040   4.2796340  24.3708990  16.4741300
   5.2273520  35.0881900  32.1227370   4.6894610  35.8127960  31.8036070
   5.4807480  34.6112240  31.3324710   6.4798770  23.0566420  33.6483300
   7.0698460  22.7482270  34.3361120   5.6619010  22.5846170  33.8043200
  11.2992200  22.6732230  33.8816320  10.6107720  22.0113770  33.8166310
  12.0198220  22.2270500  34.3264780  11.9292600  19.2683860  19.9406580
  12.2094890  18.4251760  20.2966000  11.1558330  19.5006970  20.4545330
   3.2487090  21.5576250  17.3997580   3.5512990  21.5643680  16.4916730
   3.9881680  21.2074110  17.8965240   8.0835730  36.3233110  32.3814020
   8.0094430  37.2268250  32.6886390   7.1814570  36.0045010  32.3536090
   6.4672020  20.5010870  18.3853780   6.1194020  19.8234860  17.8056230
   6.6684790  20.0400380  19.1997170   8.6321060  35.4891620  20.0040380
   9.5271850  35.8276590  20.0259140   8.6638690  34.7671030  19.3764660
   2.2717220  30.8618670  18.2327380   2.7092090  31.4048340  18.8884960
   2.7564950  30.0365620  18.2423720   4.0824940  31.9816710  23.3449610
   3.7820480  31.8581680  24.2453520   3.9762430  31.1225300  22.9365340
  15.6115410  34.0195290  32.7106580  15.0117400  34.0787850  31.9670500
  15.7409310  33.0800270  32.8403430  16.8516860  31.7613110  18.0476290
  16.0209820  31.8289760  18.5183520  17.0288690  32.6517230  17.7443150
  16.3073320  28.5060590  20.5510490  17.0692230  29.0757240  20.6570180
  16.3227690  27.9387790  21.3218800  17.3133290  29.3610690  25.3952420
  17.6842120  28.5778010  24.9888390  17.9535220  30.0499790  25.2169720
  14.2967050  30.7447270  30.8082740  13.4826890  31.1744430  31.0708530
  14.7041250  31.3565680  30.1951790  16.3592490  28.7994960  17.7083010
  16.6341330  29.7073840  17.5802230  16.1703230  28.7357490  18.6445000
  12.7568100  21.8239810  19.0036640  13.1752980  21.6370790  18.1633300
  12.4504160  20.9718860  19.3139570  16.2557830  26.7363950  22.7012440
  15.8801430  25.9691880  22.2693730  15.5260950  27.1186650  23.1887370
  15.6457450  25.8835470  32.3351960  15.4143540  25.6548220  31.4349910
  15.9062000  26.8035020  32.2896850  14.0845520  21.1091900  35.1131660
  14.9615700  21.1175300  35.4965660  14.0966360  20.3722740  34.5024010
  15.5308790  24.9621440  26.0019680  16.0546270  24.4684090  25.3709850
  16.1168210  25.0971800  26.7467250  15.7098510  25.0461310  29.5239230
  14.7601220  25.0124850  29.6384220  15.8911520  25.9561420  29.2889000
  15.0208760  24.2194790  21.9412090  15.5167880  23.9865660  22.7260970
  14.8224830  23.3806630  21.5249730  16.4495920  22.8555740  24.4749770
  16.3395200  22.7011780  25.4132040  17.2103510  22.3276680  24.2325180
  14.7961640  18.7949870  30.9332770  15.4333860  19.4084010  31.2991960
  14.9436530  18.8310530  29.9882000  17.3386190  20.6863660  17.7155910
  18.2635500  20.5544840  17.5074200  17.3161980  20.7656480  18.6692360
  17.4124680  21.4574320  20.3412620  16.6176180  21.3919440  20.8705530
  17.6167960  22.3924960  20.3297970  14.3543100  35.4965870  24.3351010
  14.9502170  35.1750440  23.6585430  14.6121250  35.0237690  25.1264280
   2.2605670  31.9283780  34.4841640   2.2175300  31.5576690  35.3656100
   2.3916680  32.8661350  34.6243460   5.9611700  33.4843370  30.0851360
   5.7203060  33.7517930  29.1981880   6.9014340  33.6549100  30.1402220
   8.1666120  19.9476060  33.8407870   8.1055010  20.5397890  34.5903280
   9.1066500  19.8402020  33.6958130  10.8040680  19.6046120  33.4800160
  11.4181090  19.9225410  32.8181240  11.3490240  19.1194710  34.0996020
  17.2215860  35.5037750  30.8862000  16.7274140  35.9006620  30.1689130
  16.6129150  34.8786960  31.2799280  11.5448720  18.1678260  29.8069450
  10.6708560  18.5013370  29.6042380  11.4359470  17.6951440  30.6321320
  12.4520700  20.3749130  31.1911170  12.1234060  19.5600890  30.8112900
  13.4003000  20.3318940  31.0676860  14.9055310  36.1461170  28.1648740
  14.4458280  36.8976980  27.7906760  14.2767770  35.4267640  28.1063540
   5.3351030  34.4549410  27.3396870   5.8516050  33.8436770  26.8145130
   5.9848410  34.9578190  27.8307880   8.0746530  35.3457900  28.1665850
   8.3624340  35.0912200  27.2898860   8.5869750  34.7935260  28.7571420
   9.2923540  19.0848100  28.7462360   8.5095330  19.5593600  29.0259120
   8.9986470  18.1802930  28.6375540  13.8444610  19.7871200  26.7911450
  14.2852700  19.7316300  25.9433050  13.5752200  20.7029210  26.8621630
  15.7083180  19.4186440  24.8020270  15.6471580  18.4747660  24.6551290
  16.4875210  19.5266530  25.3473730   7.1777760  21.5034850  24.2578390
   6.3652270  21.1291740  23.9174270   7.6819400  20.7479930  24.5599580
  11.6802740  18.1677300  25.4961460  12.2832110  18.7397510  25.9709980
  10.9395730  18.7316740  25.2735360  14.8237340  18.5698860  20.7701740
  15.0187970  19.4682310  21.0369170  14.0367210  18.3385940  21.2634690
   3.0089100  19.9159630  19.8078050   3.5381860  19.1289430  19.6786000
   3.6417420  20.5950820  20.0413580   5.2026940  19.6534770  22.8623440
   4.5729680  18.9522080  23.0293570   4.6632080  20.4138900  22.6456600
   8.1418890  36.2674000  35.5334050   9.0686200  36.0318270  35.5770010
   8.1269320  37.0946000  35.0520080  16.3763950  35.8099570  22.5308300
  16.5516140  35.1237310  21.8869220  15.6785520  36.3346620  22.1384970
   5.3282500  18.9318750  35.2975930   5.0466770  19.4352350  34.5336750
   5.7102200  18.1340500  34.9318060   4.2191600  36.1994410  20.0843610
   4.9510420  35.9153690  19.5367500   4.4785270  35.9607690  20.9742990
   3.3806390  32.3159140  20.0889940   2.7515270  32.7844240  20.6375770
   3.4954220  31.4708360  20.5236130  11.9297960  18.3472330  35.8756400
  11.8163410  18.6666940  36.7707920  12.7467700  18.7484840  35.5793680
  14.7096450  35.4943860  35.3575090  15.5021770  34.9993090  35.1501050
  15.0029600  36.1734000  35.9650700  10.8356110  26.3664800   6.2391140
  10.7550160  25.4519410   5.9682850  10.4220530  26.8631870   5.5330850
   8.9674150  28.1443820   8.1200410   8.1916250  27.6644260   8.4098980
   9.6187080  27.4649470   7.9456570   2.9839980  28.4563630   8.9976170
   2.1524860  28.2012340   9.3972680   3.5920960  28.5274400   9.7334090
  12.9881580  32.5504010   6.8999540  12.5263110  31.7791250   7.2286710
  13.8007130  32.5770080   7.4051990   2.9641240  32.4903720   9.1934190
   3.2669280  31.6001460   9.0144410   3.7084830  33.0473940   8.9656440
   9.2144890  34.8362020   6.5203530   8.5956330  35.2919520   5.9497970
  10.0696670  34.9913480   6.1193230   8.4083140  30.8201010   8.1270570
   8.3391420  29.8790950   7.9659700   9.1703000  30.9102420   8.6993140
   9.4388310  23.6271390   8.3539500   9.8153130  22.7543270   8.2413170
   9.3407820  23.9630090   7.4629940   3.5693320  21.9997020   3.8156940
   3.6760070  22.9000750   4.1225700   2.6585680  21.9514990   3.5251590
  13.2212430  21.1221830   5.2867840  14.0422050  20.6318400   5.3293320
  13.2546510  21.7119490   6.0399680   5.4101050  24.9683390   8.1482120
   5.9179270  25.4664360   8.7887140   5.9414290  24.1918590   7.9721480
  17.5111980  23.1388580  11.8511470  16.8064150  23.5270290  11.3326580
  17.7769900  23.8338870  12.4532400   3.6937150  19.6081950  12.4145540
   3.6955590  20.1254340  11.6091440   2.8641460  19.1312130  12.3915470
  10.0808240  29.7201260   3.9135440   9.4625510  30.1850710   3.3498160
  10.5931490  30.4128740   4.3304950   4.9440000  29.2477130  10.5919040
   4.6109380  29.8746050  11.2340110   5.1206680  29.7739010   9.8120710
  13.4573910  23.0622210   8.0595380  12.7529480  23.3507100   8.6398490
  13.8186070  23.8722320   7.6994940   3.3752480  21.3191910  10.4215990
   3.7169290  22.1633960  10.1269860   2.4368290  21.4675650  10.5381330
   4.1559100  31.2157930  12.4068220   4.7733100  31.8909010  12.1252670
   3.2952220  31.6245910  12.3155720  15.0736690  32.6797340  10.3222860
  14.3900210  33.3496450  10.3139530  15.6130980  32.8777990   9.5567720
  16.5260830  22.5077000   8.4504590  15.5785740  22.5415980   8.5820020
  16.8510820  23.3215950   8.8353950   7.0580370  18.8074180   6.7460580
   7.3655350  18.2521070   6.0296080   6.1281070  18.9418640   6.5633570
  12.6095430  34.5241470   9.0368040  12.6222590  34.1203760   8.1690300
  12.0570650  35.2988760   8.9329470  13.9040850  31.2457690   4.1258210
  13.7937180  30.3032020   4.2507630  13.9009100  31.6073330   5.0120970
  12.0080870  29.4271310  10.3650650  12.4249660  29.2131420   9.5304110
  12.7320690  29.6844100  10.9359270   9.4461130  26.8723010   3.4820700
   8.5190410  26.8060390   3.7109170   9.5985950  27.8103140   3.3675940
  15.9542970  27.8258530  10.4566890  15.1261600  27.8951620   9.9817020
  16.5493450  28.4112840   9.9882720  13.4758420  28.4343310   3.9855950
  12.8570840  28.0962860   3.3382250  13.4582870  27.7903070   4.6935140
  12.9184980  24.6127850  11.4021760  12.5056160  25.4381560  11.6561750
  12.1860930  24.0272890  11.2098120   5.0517770  27.3987750   6.2640430
   4.6474770  26.6865000   5.7686330   5.1380890  27.0540990   7.1528470
   5.5199470  31.0855310   8.4279640   5.2227760  30.4800780   7.7487420
   6.4699290  31.1232620   8.3169000   3.7646390  24.1730960  10.0439470
   4.3160980  24.2826300   9.2692720   4.2789900  24.5468560  10.7594700
  13.6085080  34.6587180  12.0902740  13.1315640  35.4659370  11.8975350
  12.9246870  34.0065510  12.2428950   4.6117900  30.8237000  15.0787440
   3.7146430  31.0476970  15.3260840   4.6370770  30.9471940  14.1298840
   3.4389120  27.6950320  13.6544810   3.2996890  28.5673120  14.0232210
   2.5570480  27.3523130  13.5092750   9.7618500  32.6126190   4.9609940
  10.2014410  33.3550520   4.5465330   9.7005390  32.8552760   5.8848900
   5.2369470  33.6372020  15.8629960   5.2084900  34.0414970  14.9958390
   5.0734440  32.7082380  15.7001560  17.1884290  34.4199120  17.1594130
  17.6644010  34.8982010  17.8383210  17.8091450  34.3516610  16.4339630
  16.5917540  31.6111970  14.3194140  16.7180600  31.3723850  13.4011320
  16.6338920  30.7796510  14.7916220  10.4534280  35.3139970  12.8888950
  10.9678950  35.2247980  13.6911380   9.6103360  35.6599670  13.1816860
  12.4288680  35.5995310   2.3172950  12.2689820  35.3098250   3.2154780
  12.2635390  34.8235440   1.7818180   4.9077060  35.3793840   4.0944570
   4.7319540  34.4629380   3.8812370   4.0532800  35.7381130   4.3342370
  11.6964740  34.7345580   4.9519440  12.1521690  33.9534960   5.2658060
  12.0357260  35.4452400   5.4960620  16.4441550  23.6644430  15.2843880
  15.8285820  24.1724100  14.7559340  16.1237970  22.7642760  15.2269820
   4.2186060  19.6367800   7.1470750   3.7754210  20.4177340   6.8155270
   4.7771050  19.9597690   7.8541690   8.5055870  22.5036320  12.7506070
   8.0435240  22.7119340  13.5626010   8.1033980  21.6895670  12.4476740
  13.5060380  23.7245270  13.8802730  12.6553970  23.4251020  14.2011800
  13.3462170  23.9687280  12.9686550  10.6010090  25.2247020  15.9801520
  10.9263500  24.3910770  15.6403750  11.3890420  25.7475540  16.1279850
   6.2561960  20.1815130   9.0060350   6.5534290  21.0877960   8.9252370
   6.8047520  19.6933910   8.3919920   4.0100280  24.7601370   4.8752000
   3.7841200  24.5438540   5.7798620   3.2292810  25.1929830   4.5297970
  11.2398040  24.7664740   3.4742650  10.6406930  25.4900540   3.2906270
  11.7877650  24.7041520   2.6919100   6.4499490  25.6586950  15.5412270
   6.3543090  24.7181680  15.3912670   7.2931470  25.8802020  15.1460340
   9.8462910  23.4028280   5.5045930  10.2392480  23.7200480   4.6914620
  10.2079760  22.5240160   5.6190450   8.1555080  22.1535590  16.7642790
   7.4653400  21.9607790  17.3988880   8.8987380  22.4370230  17.2967090
  10.4318050  25.9934030   9.5996710   9.6999170  26.5020840   9.9486810
  10.0342390  25.1764010   9.2985490   6.8695440  22.6688230   8.0049200
   6.8731500  22.2278180   7.1553740   7.7646560  22.9905560   8.1121020
   2.7197820  22.5514720   6.9643410   2.3797870  23.0289950   7.7210460
   1.9575140  22.0979840   6.6044510  10.8943960  21.4467710   9.0119650
  10.9116700  21.8976360   9.8561500  10.6459540  20.5473350   9.2253090
  14.3214710  18.8599890  14.8506030  14.6460480  18.1289550  15.3764010
  14.3571220  18.5413530  13.9487020   7.1703410  26.7290010   9.7514610
   7.5373540  26.2548580  10.4975950   6.9808470  27.6031580  10.0922950
   4.9602780  25.7698650  12.0698820   4.6559850  26.6490630  12.2949180
   5.9149240  25.8298440  12.1056260   3.4884570  29.9759640   2.6665670
   2.7146830  29.4357260   2.5064390   4.2179200  29.4566250   2.3283430
  14.2472550  28.9725000   8.4592060  14.9671670  29.4680290   8.0688170
  14.0454370  28.2942890   7.8145930   9.7082490  20.3662960   2.6021450
   8.8947100  19.8676130   2.5266760   9.5144440  21.2061210   2.1857800
   9.6291350  29.0434060  14.3461060   9.5628660  28.1229730  14.0918650
   8.9996490  29.1409500  15.0605700   3.5321970  29.6440020   6.3044480
   4.0500640  28.8408280   6.2501370   3.0805990  29.5819160   7.1461310
   4.2179630  27.0685630  16.1009730   3.9179770  27.2142810  15.2037550
   4.9890870  26.5090920  16.0083120   9.5608080  31.8654630  14.0964860
   9.5752620  30.9335590  13.8783770   8.8533180  31.9514390  14.7354630
  15.7719290  28.5061970  13.4433440  15.0467480  29.0990750  13.2462830
  16.2994750  28.4985510  12.6446810  15.7232400  32.9036710   3.0945600
  15.0808560  32.2492330   3.3689320  15.3363060  33.3091800   2.3186270
  11.3018880  30.2322140   6.9417290  11.6542700  29.6350270   6.2818660
  10.4181210  29.9066370   7.1125540   7.3882160  30.9919830   4.3487700
   8.0753290  31.5389040   4.7295290   6.6014580  31.5360560   4.3837310
   6.6909370  27.9965860   3.9613060   7.1472150  28.8071110   4.1873250
   6.3397580  27.6789000   4.7931550   8.9941980  33.5072200  11.1905360
   9.6384200  33.7131580  11.8678780   9.3571420  32.7460600  10.7376210
   2.5921150  18.3403510   4.4335580   2.4635780  18.3321410   5.3820500
   1.7683170  18.6786600   4.0826590  10.2674060  31.5104550   9.9082810
  10.9096290  30.8097710  10.0214980  10.7923410  32.2902990   9.7279700
  12.0411680  32.3099450  13.1118870  12.3767920  32.8966140  13.7896790
  11.1212020  32.1792160  13.3416660   7.8700260  32.3590780  16.2806930
   7.5497130  31.6400020  16.8252620   7.1958620  33.0345850  16.3542990
  11.0853860  22.5916940  11.6443730  11.4534680  21.7712150  11.9723300
  10.2252060  22.6518830  12.0599380  14.4515890  21.5473880   2.4531290
  13.8229050  21.6519550   1.7389520  13.9567810  21.7670660   3.2425170
   6.4199920  23.8259830   3.8689170   5.7116070  24.2946170   4.3102780
   6.7044400  23.1681840   4.5034360   8.0455850  25.2456530  11.8681700
   8.5441100  25.7202350  12.5333550   8.1878800  24.3220050  12.0751730
  10.4515350  20.5510490   5.3084960  10.3283130  20.5696620   4.3594470
  11.3999910  20.5989430   5.4283360   7.5392140  35.7865790   4.5812940
   7.7933640  35.7487180   3.6592310   6.5904620  35.6599120   4.5741190
  15.2522710  21.4624490  12.7110090  14.7496310  22.2029890  13.0503900
  16.0679370  21.8508490  12.3946880  13.5444720  26.7057670   6.1571450
  12.6034860  26.7207900   6.3319140  13.8588790  25.9193630   6.6031750
  15.5470300  33.8766520   7.8325710  15.6717720  34.6997690   8.3049520
  16.4135860  33.6657250   7.4849860   3.0187830  35.9697730   7.5042840
   3.7550310  35.4213190   7.7751410   3.4028750  36.8353740   7.3648830
  10.8610740  31.2623670  16.6403830  10.2548900  31.2855270  15.8999580
  10.5564850  30.5306710  17.1771080  12.2911110  34.9903960  15.2513240
  13.2432860  34.9061980  15.2013480  12.1439330  35.6545670  15.9247030
   6.7981860  29.0488250  15.1699990   6.0327530  29.6173250  15.0854660
   6.9797820  28.7564460  14.2768220  13.9405210  30.7793580  15.7275010
  14.6814680  31.1169340  15.2242470  13.1777890  30.9485640  15.1744780
   1.7767000  25.7846850  16.5314540   1.8172340  25.4860720  17.4399770
   2.6312500  26.1854460  16.3722060   3.7172810  24.3638950  14.4989030
   3.1869270  23.8729900  13.8712370   4.3860880  24.7923150  13.9646960
  12.6150870  28.8308410  14.2630220  13.0291890  28.9853490  15.1120640
  11.6801870  28.9563630  14.4256000  13.0873040  26.1704570  16.2669370
  13.6693810  25.4156890  16.1789850  13.2634810  26.7012010  15.4900850
   4.2045110  21.3301320  14.5786320   4.1101980  20.7122070  13.8537190
   3.6242500  22.0567610  14.3516230   6.9706550  19.8874560  11.6113710
   6.5223850  19.9098820  10.7659260   6.3371750  19.4893580  12.2084010
   7.3766100  28.7828890  12.2326150   7.7954210  29.6261620  12.0602390
   6.4574730  28.9200930  12.0032930   9.7130000  26.5145070  13.6163990
   9.8326210  25.9186210  14.3558830  10.5724000  26.5514760  13.1965290
  12.0517900  27.0682260  12.1926500  11.5253120  27.5924880  11.5891640
  12.3949240  27.7009650  12.8236230   5.2273520  35.0881900  13.3483880
   4.6894610  35.8127960  13.0292580   5.4807480  34.6112240  12.5581220
   6.4798770  23.0566420  14.8739810   7.0698460  22.7482270  15.5617630
   5.6619010  22.5846170  15.0299710  11.2992200  22.6732230  15.1072830
  10.6107720  22.0113770  15.0422820  12.0198220  22.2270500  15.5521290
   8.0835730  36.3233110  13.6070530   8.0094430  37.2268250  13.9142900
   7.1814570  36.0045010  13.5792600   4.0824940  31.9816710   4.5706120
   3.7820480  31.8581680   5.4710030   3.9762430  31.1225300   4.1621850
  15.6115410  34.0195290  13.9363090  15.0117400  34.0787850  13.1927010
  15.7409310  33.0800270  14.0659940  16.3073320  28.5060590   1.7767000
  17.0692230  29.0757240   1.8826690  16.3227690  27.9387790   2.5475310
  17.3133290  29.3610690   6.6208930  17.6842120  28.5778010   6.2144900
  17.9535220  30.0499790   6.4426230  14.2967050  30.7447270  12.0339250
  13.4826890  31.1744430  12.2965040  14.7041250  31.3565680  11.4208300
  16.2557830  26.7363950   3.9268950  15.8801430  25.9691880   3.4950240
  15.5260950  27.1186650   4.4143880  15.6457450  25.8835470  13.5608470
  15.4143540  25.6548220  12.6606420  15.9062000  26.8035020  13.5153360
  14.0845520  21.1091900  16.3388170  14.9615700  21.1175300  16.7222170
  14.0966360  20.3722740  15.7280520  15.5308790  24.9621440   7.2276190
  16.0546270  24.4684090   6.5966360  16.1168210  25.0971800   7.9723760
  15.7098510  25.0461310  10.7495740  14.7601220  25.0124850  10.8640730
  15.8911520  25.9561420  10.5145510  15.0208760  24.2194790   3.1668600
  15.5167880  23.9865660   3.9517480  14.8224830  23.3806630   2.7506240
  16.4495920  22.8555740   5.7006280  16.3395200  22.7011780   6.6388550
  17.2103510  22.3276680   5.4581690  14.7961640  18.7949870  12.1589280
  15.4333860  19.4084010  12.5248470  14.9436530  18.8310530  11.2138510
  14.3543100  35.4965870   5.5607520  14.9502170  35.1750440   4.8841940
  14.6121250  35.0237690   6.3520790   2.2605670  31.9283780  15.7098150
   2.2175300  31.5576690  16.5912610   2.3916680  32.8661350  15.8499970
   5.9611700  33.4843370  11.3107870   5.7203060  33.7517930  10.4238390
   6.9014340  33.6549100  11.3658730   8.1666120  19.9476060  15.0664380
   8.1055010  20.5397890  15.8159790   9.1066500  19.8402020  14.9214640
  10.8040680  19.6046120  14.7056670  11.4181090  19.9225410  14.0437750
  11.3490240  19.1194710  15.3252530  17.2215860  35.5037750  12.1118510
  16.7274140  35.9006620  11.3945640  16.6129150  34.8786960  12.5055790
  11.5448720  18.1678260  11.0325960  10.6708560  18.5013370  10.8298890
  11.4359470  17.6951440  11.8577830  12.4520700  20.3749130  12.4167680
  12.1234060  19.5600890  12.0369410  13.4003000  20.3318940  12.2933370
  14.9055310  36.1461170   9.3905250  14.4458280  36.8976980   9.0163270
  14.2767770  35.4267640   9.3320050   5.3351030  34.4549410   8.5653380
   5.8516050  33.8436770   8.0401640   5.9848410  34.9578190   9.0564390
   8.0746530  35.3457900   9.3922360   8.3624340  35.0912200   8.5155370
   8.5869750  34.7935260   9.9827930   9.2923540  19.0848100   9.9718870
   8.5095330  19.5593600  10.2515630   8.9986470  18.1802930   9.8632050
  13.8444610  19.7871200   8.0167960  14.2852700  19.7316300   7.1689560
  13.5752200  20.7029210   8.0878140  15.7083180  19.4186440   6.0276780
  15.6471580  18.4747660   5.8807800  16.4875210  19.5266530   6.5730240
   7.1777760  21.5034850   5.4834900   6.3652270  21.1291740   5.1430780
   7.6819400  20.7479930   5.7856090  11.6802740  18.1677300   6.7217970
  12.2832110  18.7397510   7.1966490  10.9395730  18.7316740   6.4991870
  14.8237340  18.5698860   1.9958250  15.0187970  19.4682310   2.2625680
  14.0367210  18.3385940   2.4891200   5.2026940  19.6534770   4.0879950
   4.5729680  18.9522080   4.2550080   4.6632080  20.4138900   3.8713110
   8.1418890  36.2674000  16.7590560   9.0686200  36.0318270  16.8026520
   8.1269320  37.0946000  16.2776590  16.3763950  35.8099570   3.7564810
  16.5516140  35.1237310   3.1125730  15.6785520  36.3346620   3.3641480
   5.3282500  18.9318750  16.5232440   5.0466770  19.4352350  15.7593260
   5.7102200  18.1340500  16.1574570  11.9297960  18.3472330  17.1012910
  11.8163410  18.6666940  17.9964430  12.7467700  18.7484840  16.8050190
  14.7096450  35.4943860  16.5831600  15.5021770  34.9993090  16.3757560
  15.0029600  36.1734000  17.1907210  10.8356110   7.5921310  62.5621610
  10.7550160   6.6775920  62.2913320  10.4220530   8.0888380  61.8561320
   8.9674150   9.3700330  64.4430880   8.1916250   8.8900770  64.7329450
   9.6187080   8.6905980  64.2687040   2.9839980   9.6820140  65.3206640
   2.1524860   9.4268850  65.7203150   3.5920960   9.7530910  66.0564560
  12.9881580  13.7760520  63.2230010  12.5263110  13.0047760  63.5517180
  13.8007130  13.8026590  63.7282460   2.9641240  13.7160230  65.5164660
   3.2669280  12.8257970  65.3374880   3.7084830  14.2730450  65.2886910
   9.2144890  16.0618530  62.8434000   8.5956330  16.5176030  62.2728440
  10.0696670  16.2169990  62.4423700   8.4083140  12.0457520  64.4501040
   8.3391420  11.1047460  64.2890170   9.1703000  12.1358930  65.0223610
   9.4388310   4.8527900  64.6769970   9.8153130   3.9799780  64.5643640
   9.3407820   5.1886600  63.7860410   3.5693320   3.2253530  60.1387410
   3.6760070   4.1257260  60.4456170   2.6585680   3.1771500  59.8482060
  13.2212430   2.3478340  61.6098310  14.0422050   1.8574910  61.6523790
  13.2546510   2.9376000  62.3630150   5.4101050   6.1939900  64.4712590
   5.9179270   6.6920870  65.1117610   5.9414290   5.4175100  64.2951950
  17.5111980   4.3645090  68.1741940  16.8064150   4.7526800  67.6557050
  17.7769900   5.0595380  68.7762870  10.0808240  10.9457770  60.2365910
   9.4625510  11.4107220  59.6728630  10.5931490  11.6385250  60.6535420
   4.9440000  10.4733640  66.9149510   4.6109380  11.1002560  67.5570580
   5.1206680  10.9995520  66.1351180  13.4573910   4.2878720  64.3825850
  12.7529480   4.5763610  64.9628960  13.8186070   5.0978830  64.0225410
   3.3752480   2.5448420  66.7446460   3.7169290   3.3890470  66.4500330
   2.4368290   2.6932160  66.8611800   4.1559100  12.4414440  68.7298690
   4.7733100  13.1165520  68.4483140   3.2952220  12.8502420  68.6386190
  15.0736690  13.9053850  66.6453330  14.3900210  14.5752960  66.6370000
  15.6130980  14.1034500  65.8798190  16.5260830   3.7333510  64.7735060
  15.5785740   3.7672490  64.9050490  16.8510820   4.5472460  65.1584420
  12.6095430  15.7497980  65.3598510  12.6222590  15.3460270  64.4920770
  12.0570650  16.5245270  65.2559940  13.9040850  12.4714200  60.4488680
  13.7937180  11.5288530  60.5738100  13.9009100  12.8329840  61.3351440
  12.0080870  10.6527820  66.6881120  12.4249660  10.4387930  65.8534580
  12.7320690  10.9100610  67.2589740   9.4461130   8.0979520  59.8051170
   8.5190410   8.0316900  60.0339640   9.5985950   9.0359650  59.6906410
   9.4330210   4.3696520  56.8018330   8.4933880   4.5310480  56.8870790
   9.7513470   5.0882200  56.2554320  15.9542970   9.0515040  66.7797360
  15.1261600   9.1208130  66.3047490  16.5493450   9.6369350  66.3113190
  13.4758420   9.6599820  60.3086420  12.8570840   9.3219370  59.6612720
  13.4582870   9.0159580  61.0165610  12.9184980   5.8384360  67.7252230
  12.5056160   6.6638070  67.9792220  12.1860930   5.2529400  67.5328590
   5.0517770   8.6244260  62.5870900   4.6474770   7.9121510  62.0916800
   5.1380890   8.2797500  63.4758940   5.5199470  12.3111820  64.7510110
   5.2227760  11.7057290  64.0717890   6.4699290  12.3489130  64.6399470
   3.7646390   5.3987470  66.3669940   4.3160980   5.5082810  65.5923190
   4.2789900   5.7725070  67.0825170  13.6085080  15.8843690  68.4133210
  13.1315640  16.6915880  68.2205820  12.9246870  15.2322020  68.5659420
  11.6523120   8.8986630  57.3159170  12.0916400   8.0609060  57.1696990
  12.3651540   9.5316030  57.4023310   9.7618500  13.8382700  61.2840410
  10.2014410  14.5807030  60.8695800   9.7005390  14.0809270  62.2079370
  10.4534280  16.5396480  69.2119420  10.9678950  16.4504490  70.0141850
   9.6103360  16.8856180  69.5047330  12.4288680  16.8251820  58.6403420
  12.2689820  16.5354760  59.5385250  12.2635390  16.0491950  58.1048650
   4.9077060  16.6050350  60.4175040   4.7319540  15.6885890  60.2042840
   4.0532800  16.9637640  60.6572840  12.1314810  14.3339380  57.2001420
  11.4379970  14.3316670  56.5403700  12.8737670  13.9098700  56.7695590
  11.6964740  15.9602090  61.2749910  12.1521690  15.1791470  61.5888530
  12.0357260  16.6708910  61.8191090   8.5055870   3.7292830  69.0736540
   8.0435240   3.9375850  69.8856480   8.1033980   2.9152180  68.7707210
   4.0100280   5.9857880  61.1982470   3.7841200   5.7695050  62.1029090
   3.2292810   6.4186340  60.8528440  11.2398040   5.9921250  59.7973120
  10.6406930   6.7157050  59.6136740  11.7877650   5.9298030  59.0149570
   9.8462910   4.6284790  61.8276400  10.2392480   4.9456990  61.0145090
  10.2079760   3.7496670  61.9420920  10.4318050   7.2190540  65.9227180
   9.6999170   7.7277350  66.2717280  10.0342390   6.4020520  65.6215960
   6.8695440   3.8944740  64.3279670   6.8731500   3.4534690  63.4784210
   7.7646560   4.2162070  64.4351490   2.7197820   3.7771230  63.2873880
   2.3797870   4.2546460  64.0440930   1.9575140   3.3236350  62.9274980
   6.9315590   4.8956820  57.3186430   7.0528410   4.8543300  58.2672250
   6.5464100   5.7580970  57.1633160  10.8943960   2.6724220  65.3350120
  10.9116700   3.1232870  66.1791970  10.6459540   1.7729860  65.5483560
   5.9437090   7.2057960  56.7169730   5.3753990   6.7576210  56.0905640
   6.6526090   7.5650740  56.1834880   7.1703410   7.9546520  66.0745080
   7.5373540   7.4805090  66.8206420   6.9808470   8.8288090  66.4153420
   4.9602780   6.9955160  68.3929290   4.6559850   7.8747140  68.6179650
   5.9149240   7.0554950  68.4286730   3.4884570  11.2016150  58.9896140
   2.7146830  10.6613770  58.8294860   4.2179200  10.6822760  58.6513900
  14.2472550  10.1981510  64.7822530  14.9671670  10.6936800  64.3918640
  14.0454370   9.5199400  64.1376400  12.4230880   5.9639120  57.2214080
  13.3110500   6.2756350  57.0465420  12.3935970   5.0911370  56.8294660
   3.5321970  10.8696530  62.6274950   4.0500640  10.0664790  62.5731840
   3.0805990  10.8075670  63.4691780   8.4191470  12.1362810  57.9002250
   8.7607170  12.8805040  57.4045570   7.5904180  12.4493930  58.2627080
  14.6945150   7.2750960  56.6893940  14.6108870   7.7065180  55.8390380
  15.4139340   7.7349310  57.1220760  15.7719290   9.7318480  69.7663910
  15.0467480  10.3247260  69.5693300  16.2994750   9.7242020  68.9677280
  15.7232400  14.1293220  59.4176070  15.0808560  13.4748840  59.6919790
  15.3363060  14.5348310  58.6416740  11.3018880  11.4578650  63.2647760
  11.6542700  10.8606780  62.6049130  10.4181210  11.1322880  63.4356010
   7.3882160  12.2176340  60.6718170   8.0753290  12.7645550  61.0525760
   6.6014580  12.7617070  60.7067780   6.6909370   9.2222370  60.2843530
   7.1472150  10.0327620  60.5103720   6.3397580   8.9045510  61.1162020
   8.9941980  14.7328710  67.5135830   9.6384200  14.9388090  68.1909250
   9.3571420  13.9717110  67.0606680  10.2674060  12.7361060  66.2313280
  10.9096290  12.0354220  66.3445450  10.7923410  13.5159500  66.0510170
  14.1129780  13.0209680  55.9552420  13.8867360  12.3040120  56.5477060
  13.7225980  12.7722120  55.1174170  12.0411680  13.5355960  69.4349340
  12.3767920  14.1222650  70.1127260  11.1212020  13.4048670  69.6647130
  13.6946030  10.9381620  57.6166580  13.4067730  11.3994310  58.4044460
  14.4898200  10.4779390  57.8850800   5.9114430  14.4307740  57.5470550
   5.9024530  15.1637430  56.9315060   4.9912790  14.1839320  57.6397510
  11.0853860   3.8173450  67.9674200  11.4534680   2.9968660  68.2953770
  10.2252060   3.8775340  68.3829850  14.4515890   2.7730390  58.7761760
  13.8229050   2.8776060  58.0619990  13.9567810   2.9927170  59.5655640
   8.8974030  14.4935980  56.2095740   8.9986010  14.2899970  55.2797720
   7.9975770  14.2394260  56.4143520   6.4199920   5.0516340  60.1919640
   5.7116070   5.5202680  60.6333250   6.7044400   4.3938350  60.8264830
   8.0455850   6.4713040  68.1912170   8.5441100   6.9458860  68.8564020
   8.1878800   5.5476560  68.3982200  10.4515350   1.7767000  61.6315430
  10.3283130   1.7953130  60.6824940  11.3999910   1.8245940  61.7513830
   7.5392140  17.0122300  60.9043410   7.7933640  16.9743690  59.9822780
   6.5904620  16.8855630  60.8971660   4.6234940   3.3601420  57.5670350
   5.4725470   3.7971570  57.5010540   4.2566210   3.6721680  58.3942410
  15.2522710   2.6881000  69.0340560  14.7496310   3.4286400  69.3734370
  16.0679370   3.0765000  68.7177350  13.5444720   7.9314180  62.4801920
  12.6034860   7.9464410  62.6549610  13.8588790   7.1450140  62.9262220
   3.5226360   9.6133780  56.0405880   4.2889630   9.5015140  56.6031310
   3.6001050   8.9171750  55.3882650   2.2173120   7.0458850  56.7238770
   2.2976710   6.0986360  56.8356170   3.1092870   7.3765730  56.8299430
  15.5470300  15.1023030  64.1556180  15.6717720  15.9254200  64.6279990
  16.4135860  14.8913760  63.8080330   3.0187830  17.1954240  63.8273310
   3.7550310  16.6469700  64.0981880   3.4028750  18.0610250  63.6879300
   6.1290140  16.3684550  55.6498880   6.9218750  16.6573380  55.1980670
   5.6094490  15.9376720  54.9711360  15.1820310  15.5954680  57.0735620
  14.8961820  15.1819820  56.2589800  14.9839860  16.5242390  56.9536140
   6.6467540  11.5887960  55.5141230   6.5418180  10.9740310  56.2402610
   6.4791760  11.0653850  54.7304240   9.8870270  10.6507990  56.1183220
   9.3380370  11.0977290  56.7625960  10.5089530  10.1457240  56.6420890
   5.5545390   9.6098910  58.0148520   5.9761810   9.4438780  58.8579910
   5.6796230   8.7999140  57.5203660   8.0673030   8.6336520  55.2625620
   8.5878690   7.9185540  54.8966770   8.7141430   9.2722390  55.5626130
   7.3766100  10.0085400  68.5556620   7.7954210  10.8518130  68.3832860
   6.4574730  10.1457440  68.3263400  12.0517900   8.2938770  68.5156970
  11.5253120   8.8181390  67.9122110  12.3949240   8.9266160  69.1466700
   4.4504290   5.6832140  54.9606680   4.2493350   4.8199500  55.3220020
   4.2796340   5.5965500  54.0228280   5.2273520  16.3138410  69.6714350
   4.6894610  17.0384470  69.3523050   5.4807480  15.8368750  68.8811690
   3.2487090   2.7832760  54.9484560   3.5512990   2.7900190  54.0403710
   3.9881680   2.4330620  55.4452220   8.0835730  17.5489620  69.9301000
   8.0094430  18.4524760  70.2373370   7.1814570  17.2301520  69.9023070
   8.6321060  16.7148130  57.5527360   9.5271850  17.0533100  57.5746120
   8.6638690  15.9927540  56.9251640   2.2717220  12.0875180  55.7814360
   2.7092090  12.6304850  56.4371940   2.7564950  11.2622130  55.7910700
   4.0824940  13.2073220  60.8936590   3.7820480  13.0838190  61.7940500
   3.9762430  12.3481810  60.4852320  16.8516860  12.9869620  55.5963270
  16.0209820  13.0546270  56.0670500  17.0288690  13.8773740  55.2930130
  16.3073320   9.7317100  58.0997470  17.0692230  10.3013750  58.2057160
  16.3227690   9.1644300  58.8705780  17.3133290  10.5867200  62.9439400
  17.6842120   9.8034520  62.5375370  17.9535220  11.2756300  62.7656700
  14.2967050  11.9703780  68.3569720  13.4826890  12.4000940  68.6195510
  14.7041250  12.5822190  67.7438770  16.3592490  10.0251470  55.2569990
  16.6341330  10.9330350  55.1289210  16.1703230   9.9614000  56.1931980
  12.7568100   3.0496320  56.5523620  13.1752980   2.8627300  55.7120280
  12.4504160   2.1975370  56.8626550  16.2557830   7.9620460  60.2499420
  15.8801430   7.1948390  59.8180710  15.5260950   8.3443160  60.7374350
  15.6457450   7.1091980  69.8838940  15.4143540   6.8804730  68.9836890
  15.9062000   8.0291530  69.8383830  15.5308790   6.1877950  63.5506660
  16.0546270   5.6940600  62.9196830  16.1168210   6.3228310  64.2954230
  15.7098510   6.2717820  67.0726210  14.7601220   6.2381360  67.1871200
  15.8911520   7.1817930  66.8375980  15.0208760   5.4451300  59.4899070
  15.5167880   5.2122170  60.2747950  14.8224830   4.6063140  59.0736710
  16.4495920   4.0812250  62.0236750  16.3395200   3.9268290  62.9619020
  17.2103510   3.5533190  61.7812160  17.3386190   1.9120170  55.2642890
  18.2635500   1.7801350  55.0561180  17.3161980   1.9912990  56.2179340
  17.4124680   2.6830830  57.8899600  16.6176180   2.6175950  58.4192510
  17.6167960   3.6181470  57.8784950  14.3543100  16.7222380  61.8837990
  14.9502170  16.4006950  61.2072410  14.6121250  16.2494200  62.6751260
   5.9611700  14.7099880  67.6338340   5.7203060  14.9774440  66.7468860
   6.9014340  14.8805610  67.6889200  17.2215860  16.7294260  68.4348980
  16.7274140  17.1263130  67.7176110  16.6129150  16.1043470  68.8286260
  14.9055310  17.3717680  65.7135720  14.4458280  18.1233490  65.3393740
  14.2767770  16.6524150  65.6550520   5.3351030  15.6805920  64.8883850
   5.8516050  15.0693280  64.3632110   5.9848410  16.1834700  65.3794860
   8.0746530  16.5714410  65.7152830   8.3624340  16.3168710  64.8385840
   8.5869750  16.0191770  66.3058400   7.1777760   2.7291360  61.8065370
   6.3652270   2.3548250  61.4661250   7.6819400   1.9736440  62.1086560
  16.3763950  17.0356080  60.0795280  16.5516140  16.3493820  59.4356200
  15.6785520  17.5603130  59.6871950   4.2191600  17.4250920  57.6330590
   4.9510420  17.1410200  57.0854480   4.4785270  17.1864200  58.5229970
   3.3806390  13.5415650  57.6376920   2.7515270  14.0100750  58.1862750
   3.4954220  12.6964870  58.0723110  10.8356110   7.5921310  43.7878120
  10.7550160   6.6775920  43.5169830  10.4220530   8.0888380  43.0817830
   8.9674150   9.3700330  45.6687390   8.1916250   8.8900770  45.9585960
   9.6187080   8.6905980  45.4943550   2.9839980   9.6820140  46.5463150
   2.1524860   9.4268850  46.9459660   3.5920960   9.7530910  47.2821070
  12.9881580  13.7760520  44.4486520  12.5263110  13.0047760  44.7773690
  13.8007130  13.8026590  44.9538970   2.9641240  13.7160230  46.7421170
   3.2669280  12.8257970  46.5631390   3.7084830  14.2730450  46.5143420
   9.2144890  16.0618530  44.0690510   8.5956330  16.5176030  43.4984950
  10.0696670  16.2169990  43.6680210   8.4083140  12.0457520  45.6757550
   8.3391420  11.1047460  45.5146680   9.1703000  12.1358930  46.2480120
   9.4388310   4.8527900  45.9026480   9.8153130   3.9799780  45.7900150
   9.3407820   5.1886600  45.0116920   3.5693320   3.2253530  41.3643920
   3.6760070   4.1257260  41.6712680   2.6585680   3.1771500  41.0738570
  13.2212430   2.3478340  42.8354820  14.0422050   1.8574910  42.8780300
  13.2546510   2.9376000  43.5886660   5.4101050   6.1939900  45.6969100
   5.9179270   6.6920870  46.3374120   5.9414290   5.4175100  45.5208460
  17.5111980   4.3645090  49.3998450  16.8064150   4.7526800  48.8813560
  17.7769900   5.0595380  50.0019380  10.0808240  10.9457770  41.4622420
   9.4625510  11.4107220  40.8985140  10.5931490  11.6385250  41.8791930
   4.9440000  10.4733640  48.1406020   4.6109380  11.1002560  48.7827090
   5.1206680  10.9995520  47.3607690  13.4573910   4.2878720  45.6082360
  12.7529480   4.5763610  46.1885470  13.8186070   5.0978830  45.2481920
   3.3752480   2.5448420  47.9702970   3.7169290   3.3890470  47.6756840
   2.4368290   2.6932160  48.0868310   4.1559100  12.4414440  49.9555200
   4.7733100  13.1165520  49.6739650   3.2952220  12.8502420  49.8642700
  15.0736690  13.9053850  47.8709840  14.3900210  14.5752960  47.8626510
  15.6130980  14.1034500  47.1054700  16.5260830   3.7333510  45.9991570
  15.5785740   3.7672490  46.1307000  16.8510820   4.5472460  46.3840930
  12.6095430  15.7497980  46.5855020  12.6222590  15.3460270  45.7177280
  12.0570650  16.5245270  46.4816450  13.9040850  12.4714200  41.6745190
  13.7937180  11.5288530  41.7994610  13.9009100  12.8329840  42.5607950
  12.0080870  10.6527820  47.9137630  12.4249660  10.4387930  47.0791090
  12.7320690  10.9100610  48.4846250   9.4461130   8.0979520  41.0307680
   8.5190410   8.0316900  41.2596150   9.5985950   9.0359650  40.9162920
   9.4330210   4.3696520  38.0274840   8.4933880   4.5310480  38.1127300
   9.7513470   5.0882200  37.4810830  15.9542970   9.0515040  48.0053870
  15.1261600   9.1208130  47.5304000  16.5493450   9.6369350  47.5369700
  13.4758420   9.6599820  41.5342930  12.8570840   9.3219370  40.8869230
  13.4582870   9.0159580  42.2422120  12.9184980   5.8384360  48.9508740
  12.5056160   6.6638070  49.2048730  12.1860930   5.2529400  48.7585100
   5.0517770   8.6244260  43.8127410   4.6474770   7.9121510  43.3173310
   5.1380890   8.2797500  44.7015450   5.5199470  12.3111820  45.9766620
   5.2227760  11.7057290  45.2974400   6.4699290  12.3489130  45.8655980
   3.7646390   5.3987470  47.5926450   4.3160980   5.5082810  46.8179700
   4.2789900   5.7725070  48.3081680  13.6085080  15.8843690  49.6389720
  13.1315640  16.6915880  49.4462330  12.9246870  15.2322020  49.7915930
   4.6117900  12.0493510  52.6274420   3.7146430  12.2733480  52.8747820
   4.6370770  12.1728450  51.6785820  11.6523120   8.8986630  38.5415680
  12.0916400   8.0609060  38.3953500  12.3651540   9.5316030  38.6279820
   3.4389120   8.9206830  51.2031790   3.2996890   9.7929630  51.5719190
   2.5570480   8.5779640  51.0579730   9.7618500  13.8382700  42.5096920
  10.2014410  14.5807030  42.0952310   9.7005390  14.0809270  43.4335880
   5.2369470  14.8628530  53.4116940   5.2084900  15.2671480  52.5445370
   5.0734440  13.9338890  53.2488540  17.1884290  15.6455630  54.7081110
  17.6644010  16.1238520  55.3870190  17.8091450  15.5773120  53.9826610
  16.5917540  12.8368480  51.8681120  16.7180600  12.5980360  50.9498300
  16.6338920  12.0053020  52.3403200  10.4534280  16.5396480  50.4375930
  10.9678950  16.4504490  51.2398360   9.6103360  16.8856180  50.7303840
  12.4288680  16.8251820  39.8659930  12.2689820  16.5354760  40.7641760
  12.2635390  16.0491950  39.3305160   4.9077060  16.6050350  41.6431550
   4.7319540  15.6885890  41.4299350   4.0532800  16.9637640  41.8829350
  12.1314810  14.3339380  38.4257930  11.4379970  14.3316670  37.7660210
  12.8737670  13.9098700  37.9952100  11.6964740  15.9602090  42.5006420
  12.1521690  15.1791470  42.8145040  12.0357260  16.6708910  43.0447600
  16.4441550   4.8900940  52.8330860  15.8285820   5.3980610  52.3046320
  16.1237970   3.9899270  52.7756800   8.5055870   3.7292830  50.2993050
   8.0435240   3.9375850  51.1112990   8.1033980   2.9152180  49.9963720
  13.5060380   4.9501780  51.4289710  12.6553970   4.6507530  51.7498780
  13.3462170   5.1943790  50.5173530  10.6010090   6.4503530  53.5288500
  10.9263500   5.6167280  53.1890730  11.3890420   6.9732050  53.6766830
   4.0100280   5.9857880  42.4238980   3.7841200   5.7695050  43.3285600
   3.2292810   6.4186340  42.0784950  11.2398040   5.9921250  41.0229630
  10.6406930   6.7157050  40.8393250  11.7877650   5.9298030  40.2406080
   6.4499490   6.8843460  53.0899250   6.3543090   5.9438190  52.9399650
   7.2931470   7.1058530  52.6947320   9.8462910   4.6284790  43.0532910
  10.2392480   4.9456990  42.2401600  10.2079760   3.7496670  43.1677430
   8.1555080   3.3792100  54.3129770   7.4653400   3.1864300  54.9475860
   8.8987380   3.6626740  54.8454070  10.4318050   7.2190540  47.1483690
   9.6999170   7.7277350  47.4973790  10.0342390   6.4020520  46.8472470
   6.8695440   3.8944740  45.5536180   6.8731500   3.4534690  44.7040720
   7.7646560   4.2162070  45.6608000   2.7197820   3.7771230  44.5130390
   2.3797870   4.2546460  45.2697440   1.9575140   3.3236350  44.1531490
   6.9315590   4.8956820  38.5442940   7.0528410   4.8543300  39.4928760
   6.5464100   5.7580970  38.3889670  10.8943960   2.6724220  46.5606630
  10.9116700   3.1232870  47.4048480  10.6459540   1.7729860  46.7740070
   5.9437090   7.2057960  37.9426240   5.3753990   6.7576210  37.3162150
   6.6526090   7.5650740  37.4091390   7.1703410   7.9546520  47.3001590
   7.5373540   7.4805090  48.0462930   6.9808470   8.8288090  47.6409930
   4.9602780   6.9955160  49.6185800   4.6559850   7.8747140  49.8436160
   5.9149240   7.0554950  49.6543240   3.4884570  11.2016150  40.2152650
   2.7146830  10.6613770  40.0551370   4.2179200  10.6822760  39.8770410
  14.2472550  10.1981510  46.0079040  14.9671670  10.6936800  45.6175150
  14.0454370   9.5199400  45.3632910   9.6291350  10.2690570  51.8948040
   9.5628660   9.3486240  51.6405630   8.9996490  10.3666010  52.6092680
  12.4230880   5.9639120  38.4470590  13.3110500   6.2756350  38.2721930
  12.3935970   5.0911370  38.0551170   3.5321970  10.8696530  43.8531460
   4.0500640  10.0664790  43.7988350   3.0805990  10.8075670  44.6948290
   8.4191470  12.1362810  39.1258760   8.7607170  12.8805040  38.6302080
   7.5904180  12.4493930  39.4883590   4.2179630   8.2942140  53.6496710
   3.9179770   8.4399320  52.7524530   4.9890870   7.7347430  53.5570100
   9.5608080  13.0911140  51.6451840   9.5752620  12.1592100  51.4270750
   8.8533180  13.1770900  52.2841610  14.6945150   7.2750960  37.9150450
  14.6108870   7.7065180  37.0646890  15.4139340   7.7349310  38.3477270
  15.7719290   9.7318480  50.9920420  15.0467480  10.3247260  50.7949810
  16.2994750   9.7242020  50.1933790  15.7232400  14.1293220  40.6432580
  15.0808560  13.4748840  40.9176300  15.3363060  14.5348310  39.8673250
  11.3018880  11.4578650  44.4904270  11.6542700  10.8606780  43.8305640
  10.4181210  11.1322880  44.6612520   7.3882160  12.2176340  41.8974680
   8.0753290  12.7645550  42.2782270   6.6014580  12.7617070  41.9324290
   6.6909370   9.2222370  41.5100040   7.1472150  10.0327620  41.7360230
   6.3397580   8.9045510  42.3418530   8.9941980  14.7328710  48.7392340
   9.6384200  14.9388090  49.4165760   9.3571420  13.9717110  48.2863190
  10.2674060  12.7361060  47.4569790  10.9096290  12.0354220  47.5701960
  10.7923410  13.5159500  47.2766680  14.1129780  13.0209680  37.1808930
  13.8867360  12.3040120  37.7733570  13.7225980  12.7722120  36.3430680
  12.0411680  13.5355960  50.6605850  12.3767920  14.1222650  51.3383770
  11.1212020  13.4048670  50.8903640  13.6946030  10.9381620  38.8423090
  13.4067730  11.3994310  39.6300970  14.4898200  10.4779390  39.1107310
   7.8700260  13.5847290  53.8293910   7.5497130  12.8656530  54.3739600
   7.1958620  14.2602360  53.9029970   5.9114430  14.4307740  38.7727060
   5.9024530  15.1637430  38.1571570   4.9912790  14.1839320  38.8654020
  11.0853860   3.8173450  49.1930710  11.4534680   2.9968660  49.5210280
  10.2252060   3.8775340  49.6086360  14.4515890   2.7730390  40.0018270
  13.8229050   2.8776060  39.2876500  13.9567810   2.9927170  40.7912150
   8.8974030  14.4935980  37.4352250   8.9986010  14.2899970  36.5054230
   7.9975770  14.2394260  37.6400030   6.4199920   5.0516340  41.4176150
   5.7116070   5.5202680  41.8589760   6.7044400   4.3938350  42.0521340
   8.0455850   6.4713040  49.4168680   8.5441100   6.9458860  50.0820530
   8.1878800   5.5476560  49.6238710  10.4515350   1.7767000  42.8571940
  10.3283130   1.7953130  41.9081450  11.3999910   1.8245940  42.9770340
   7.5392140  17.0122300  42.1299920   7.7933640  16.9743690  41.2079290
   6.5904620  16.8855630  42.1228170   4.6234940   3.3601420  38.7926860
   5.4725470   3.7971570  38.7267050   4.2566210   3.6721680  39.6198920
  15.2522710   2.6881000  50.2597070  14.7496310   3.4286400  50.5990880
  16.0679370   3.0765000  49.9433860  13.5444720   7.9314180  43.7058430
  12.6034860   7.9464410  43.8806120  13.8588790   7.1450140  44.1518730
   3.5226360   9.6133780  37.2662390   4.2889630   9.5015140  37.8287820
   3.6001050   8.9171750  36.6139160   2.2173120   7.0458850  37.9495280
   2.2976710   6.0986360  38.0612680   3.1092870   7.3765730  38.0555940
  15.5470300  15.1023030  45.3812690  15.6717720  15.9254200  45.8536500
  16.4135860  14.8913760  45.0336840   3.0187830  17.1954240  45.0529820
   3.7550310  16.6469700  45.3238390   3.4028750  18.0610250  44.9135810
   6.1290140  16.3684550  36.8755390   6.9218750  16.6573380  36.4237180
   5.6094490  15.9376720  36.1967870  10.8610740  12.4880180  54.1890810
  10.2548900  12.5111780  53.4486560  10.5564850  11.7563220  54.7258060
  12.2911110  16.2160470  52.8000220  13.2432860  16.1318490  52.7500460
  12.1439330  16.8802180  53.4734010  15.1820310  15.5954680  38.2992130
  14.8961820  15.1819820  37.4846310  14.9839860  16.5242390  38.1792650
   6.6467540  11.5887960  36.7397740   6.5418180  10.9740310  37.4659120
   6.4791760  11.0653850  35.9560750   6.7981860  10.2744760  52.7186970
   6.0327530  10.8429760  52.6341640   6.9797820   9.9820970  51.8255200
   9.8870270  10.6507990  37.3439730   9.3380370  11.0977290  37.9882470
  10.5089530  10.1457240  37.8677400  13.9405210  12.0050090  53.2761990
  14.6814680  12.3425850  52.7729450  13.1777890  12.1742150  52.7231760
   1.7767000   7.0103360  54.0801520   1.8172340   6.7117230  54.9886750
   2.6312500   7.4110970  53.9209040   5.5545390   9.6098910  39.2405030
   5.9761810   9.4438780  40.0836420   5.6796230   8.7999140  38.7460170
   3.7172810   5.5895460  52.0476010   3.1869270   5.0986410  51.4199350
   4.3860880   6.0179660  51.5133940   8.0673030   8.6336520  36.4882130
   8.5878690   7.9185540  36.1223280   8.7141430   9.2722390  36.7882640
  12.6150870  10.0564920  51.8117200  13.0291890  10.2110000  52.6607620
  11.6801870  10.1820140  51.9742980  13.0873040   7.3961080  53.8156350
  13.6693810   6.6413400  53.7276830  13.2634810   7.9268520  53.0387830
   4.2045110   2.5557830  52.1273300   4.1101980   1.9378580  51.4024170
   3.6242500   3.2824120  51.9003210   7.3766100  10.0085400  49.7813130
   7.7954210  10.8518130  49.6089370   6.4574730  10.1457440  49.5519910
   9.7130000   7.7401580  51.1650970   9.8326210   7.1442720  51.9045810
  10.5724000   7.7771270  50.7452270  12.0517900   8.2938770  49.7413480
  11.5253120   8.8181390  49.1378620  12.3949240   8.9266160  50.3723210
   4.4504290   5.6832140  36.1863190   4.2493350   4.8199500  36.5476530
   4.2796340   5.5965500  35.2484790   5.2273520  16.3138410  50.8970860
   4.6894610  17.0384470  50.5779560   5.4807480  15.8368750  50.1068200
   6.4798770   4.2822930  52.4226790   7.0698460   3.9738780  53.1104610
   5.6619010   3.8102680  52.5786690  11.2992200   3.8988740  52.6559810
  10.6107720   3.2370280  52.5909800  12.0198220   3.4527010  53.1008270
   3.2487090   2.7832760  36.1741070   3.5512990   2.7900190  35.2660220
   3.9881680   2.4330620  36.6708730   8.0835730  17.5489620  51.1557510
   8.0094430  18.4524760  51.4629880   7.1814570  17.2301520  51.1279580
   8.6321060  16.7148130  38.7783870   9.5271850  17.0533100  38.8002630
   8.6638690  15.9927540  38.1508150   2.2717220  12.0875180  37.0070870
   2.7092090  12.6304850  37.6628450   2.7564950  11.2622130  37.0167210
   4.0824940  13.2073220  42.1193100   3.7820480  13.0838190  43.0197010
   3.9762430  12.3481810  41.7108830  15.6115410  15.2451800  51.4850070
  15.0117400  15.3044360  50.7413990  15.7409310  14.3056780  51.6146920
  16.8516860  12.9869620  36.8219780  16.0209820  13.0546270  37.2927010
  17.0288690  13.8773740  36.5186640  16.3073320   9.7317100  39.3253980
  17.0692230  10.3013750  39.4313670  16.3227690   9.1644300  40.0962290
  17.3133290  10.5867200  44.1695910  17.6842120   9.8034520  43.7631880
  17.9535220  11.2756300  43.9913210  14.2967050  11.9703780  49.5826230
  13.4826890  12.4000940  49.8452020  14.7041250  12.5822190  48.9695280
  16.3592490  10.0251470  36.4826500  16.6341330  10.9330350  36.3545720
  16.1703230   9.9614000  37.4188490  12.7568100   3.0496320  37.7780130
  13.1752980   2.8627300  36.9376790  12.4504160   2.1975370  38.0883060
  16.2557830   7.9620460  41.4755930  15.8801430   7.1948390  41.0437220
  15.5260950   8.3443160  41.9630860  15.6457450   7.1091980  51.1095450
  15.4143540   6.8804730  50.2093400  15.9062000   8.0291530  51.0640340
  15.5308790   6.1877950  44.7763170  16.0546270   5.6940600  44.1453340
  16.1168210   6.3228310  45.5210740  15.7098510   6.2717820  48.2982720
  14.7601220   6.2381360  48.4127710  15.8911520   7.1817930  48.0632490
  15.0208760   5.4451300  40.7155580  15.5167880   5.2122170  41.5004460
  14.8224830   4.6063140  40.2993220  16.4495920   4.0812250  43.2493260
  16.3395200   3.9268290  44.1875530  17.2103510   3.5533190  43.0068670
  17.3386190   1.9120170  36.4899400  18.2635500   1.7801350  36.2817690
  17.3161980   1.9912990  37.4435850  17.4124680   2.6830830  39.1156110
  16.6176180   2.6175950  39.6449020  17.6167960   3.6181470  39.1041460
  14.3543100  16.7222380  43.1094500  14.9502170  16.4006950  42.4328920
  14.6121250  16.2494200  43.9007770   2.2605670  13.1540290  53.2585130
   2.2175300  12.7833200  54.1399590   2.3916680  14.0917860  53.3986950
   5.9611700  14.7099880  48.8594850   5.7203060  14.9774440  47.9725370
   6.9014340  14.8805610  48.9145710  17.2215860  16.7294260  49.6605490
  16.7274140  17.1263130  48.9432620  16.6129150  16.1043470  50.0542770
  14.9055310  17.3717680  46.9392230  14.4458280  18.1233490  46.5650250
  14.2767770  16.6524150  46.8807030   5.3351030  15.6805920  46.1140360
   5.8516050  15.0693280  45.5888620   5.9848410  16.1834700  46.6051370
   8.0746530  16.5714410  46.9409340   8.3624340  16.3168710  46.0642350
   8.5869750  16.0191770  47.5314910   7.1777760   2.7291360  43.0321880
   6.3652270   2.3548250  42.6917760   7.6819400   1.9736440  43.3343070
   8.1418890  17.4930510  54.3077540   9.0686200  17.2574780  54.3513500
   8.1269320  18.3202510  53.8263570  16.3763950  17.0356080  41.3051790
  16.5516140  16.3493820  40.6612710  15.6785520  17.5603130  40.9128460
   4.2191600  17.4250920  38.8587100   4.9510420  17.1410200  38.3110990
   4.4785270  17.1864200  39.7486480   3.3806390  13.5415650  38.8633430
   2.7515270  14.0100750  39.4119260   3.4954220  12.6964870  39.2979620
  14.7096450  16.7200370  54.1318580  15.5021770  16.2249600  53.9244540
  15.0029600  17.3990510  54.7394190  10.8356110   7.5921310  25.0134630
  10.7550160   6.6775920  24.7426340  10.4220530   8.0888380  24.3074340
   8.9674150   9.3700330  26.8943900   8.1916250   8.8900770  27.1842470
   9.6187080   8.6905980  26.7200060   2.9839980   9.6820140  27.7719660
   2.1524860   9.4268850  28.1716170   3.5920960   9.7530910  28.5077580
  12.9881580  13.7760520  25.6743030  12.5263110  13.0047760  26.0030200
  13.8007130  13.8026590  26.1795480   2.9641240  13.7160230  27.9677680
   3.2669280  12.8257970  27.7887900   3.7084830  14.2730450  27.7399930
   9.2144890  16.0618530  25.2947020   8.5956330  16.5176030  24.7241460
  10.0696670  16.2169990  24.8936720   8.4083140  12.0457520  26.9014060
   8.3391420  11.1047460  26.7403190   9.1703000  12.1358930  27.4736630
   9.4388310   4.8527900  27.1282990   9.8153130   3.9799780  27.0156660
   9.3407820   5.1886600  26.2373430   3.5693320   3.2253530  22.5900430
   3.6760070   4.1257260  22.8969190   2.6585680   3.1771500  22.2995080
  13.2212430   2.3478340  24.0611330  14.0422050   1.8574910  24.1036810
  13.2546510   2.9376000  24.8143170   5.4101050   6.1939900  26.9225610
   5.9179270   6.6920870  27.5630630   5.9414290   5.4175100  26.7464970
  17.5111980   4.3645090  30.6254960  16.8064150   4.7526800  30.1070070
  17.7769900   5.0595380  31.2275890  10.0808240  10.9457770  22.6878930
   9.4625510  11.4107220  22.1241650  10.5931490  11.6385250  23.1048440
   4.9440000  10.4733640  29.3662530   4.6109380  11.1002560  30.0083600
   5.1206680  10.9995520  28.5864200  13.4573910   4.2878720  26.8338870
  12.7529480   4.5763610  27.4141980  13.8186070   5.0978830  26.4738430
   3.3752480   2.5448420  29.1959480   3.7169290   3.3890470  28.9013350
   2.4368290   2.6932160  29.3124820   4.1559100  12.4414440  31.1811710
   4.7733100  13.1165520  30.8996160   3.2952220  12.8502420  31.0899210
  15.0736690  13.9053850  29.0966350  14.3900210  14.5752960  29.0883020
  15.6130980  14.1034500  28.3311210  16.5260830   3.7333510  27.2248080
  15.5785740   3.7672490  27.3563510  16.8510820   4.5472460  27.6097440
  12.6095430  15.7497980  27.8111530  12.6222590  15.3460270  26.9433790
  12.0570650  16.5245270  27.7072960  13.9040850  12.4714200  22.9001700
  13.7937180  11.5288530  23.0251120  13.9009100  12.8329840  23.7864460
  12.0080870  10.6527820  29.1394140  12.4249660  10.4387930  28.3047600
  12.7320690  10.9100610  29.7102760   9.4461130   8.0979520  22.2564190
   8.5190410   8.0316900  22.4852660   9.5985950   9.0359650  22.1419430
   9.4330210   4.3696520  19.2531350   8.4933880   4.5310480  19.3383810
   9.7513470   5.0882200  18.7067340  15.9542970   9.0515040  29.2310380
  15.1261600   9.1208130  28.7560510  16.5493450   9.6369350  28.7626210
  13.4758420   9.6599820  22.7599440  12.8570840   9.3219370  22.1125740
  13.4582870   9.0159580  23.4678630  12.9184980   5.8384360  30.1765250
  12.5056160   6.6638070  30.4305240  12.1860930   5.2529400  29.9841610
   5.0517770   8.6244260  25.0383920   4.6474770   7.9121510  24.5429820
   5.1380890   8.2797500  25.9271960   5.5199470  12.3111820  27.2023130
   5.2227760  11.7057290  26.5230910   6.4699290  12.3489130  27.0912490
   3.7646390   5.3987470  28.8182960   4.3160980   5.5082810  28.0436210
   4.2789900   5.7725070  29.5338190  13.6085080  15.8843690  30.8646230
  13.1315640  16.6915880  30.6718840  12.9246870  15.2322020  31.0172440
   4.6117900  12.0493510  33.8530930   3.7146430  12.2733480  34.1004330
   4.6370770  12.1728450  32.9042330  11.6523120   8.8986630  19.7672190
  12.0916400   8.0609060  19.6210010  12.3651540   9.5316030  19.8536330
   3.4389120   8.9206830  32.4288300   3.2996890   9.7929630  32.7975700
   2.5570480   8.5779640  32.2836240   9.7618500  13.8382700  23.7353430
  10.2014410  14.5807030  23.3208820   9.7005390  14.0809270  24.6592390
   5.2369470  14.8628530  34.6373450   5.2084900  15.2671480  33.7701880
   5.0734440  13.9338890  34.4745050  17.1884290  15.6455630  35.9337620
  17.6644010  16.1238520  36.6126700  17.8091450  15.5773120  35.2083120
  16.5917540  12.8368480  33.0937630  16.7180600  12.5980360  32.1754810
  16.6338920  12.0053020  33.5659710  10.4534280  16.5396480  31.6632440
  10.9678950  16.4504490  32.4654870   9.6103360  16.8856180  31.9560350
  12.4288680  16.8251820  21.0916440  12.2689820  16.5354760  21.9898270
  12.2635390  16.0491950  20.5561670   4.9077060  16.6050350  22.8688060
   4.7319540  15.6885890  22.6555860   4.0532800  16.9637640  23.1085860
  12.1314810  14.3339380  19.6514440  11.4379970  14.3316670  18.9916720
  12.8737670  13.9098700  19.2208610  11.6964740  15.9602090  23.7262930
  12.1521690  15.1791470  24.0401550  12.0357260  16.6708910  24.2704110
  16.4441550   4.8900940  34.0587370  15.8285820   5.3980610  33.5302830
  16.1237970   3.9899270  34.0013310   8.5055870   3.7292830  31.5249560
   8.0435240   3.9375850  32.3369500   8.1033980   2.9152180  31.2220230
  13.5060380   4.9501780  32.6546220  12.6553970   4.6507530  32.9755290
  13.3462170   5.1943790  31.7430040  10.6010090   6.4503530  34.7545010
  10.9263500   5.6167280  34.4147240  11.3890420   6.9732050  34.9023340
   4.0100280   5.9857880  23.6495490   3.7841200   5.7695050  24.5542110
   3.2292810   6.4186340  23.3041460  11.2398040   5.9921250  22.2486140
  10.6406930   6.7157050  22.0649760  11.7877650   5.9298030  21.4662590
   6.4499490   6.8843460  34.3155760   6.3543090   5.9438190  34.1656160
   7.2931470   7.1058530  33.9203830   9.8462910   4.6284790  24.2789420
  10.2392480   4.9456990  23.4658110  10.2079760   3.7496670  24.3933940
   8.1555080   3.3792100  35.5386280   7.4653400   3.1864300  36.1732370
   8.8987380   3.6626740  36.0710580  10.4318050   7.2190540  28.3740200
   9.6999170   7.7277350  28.7230300  10.0342390   6.4020520  28.0728980
   6.8695440   3.8944740  26.7792690   6.8731500   3.4534690  25.9297230
   7.7646560   4.2162070  26.8864510   2.7197820   3.7771230  25.7386900
   2.3797870   4.2546460  26.4953950   1.9575140   3.3236350  25.3788000
   6.9315590   4.8956820  19.7699450   7.0528410   4.8543300  20.7185270
   6.5464100   5.7580970  19.6146180  10.8943960   2.6724220  27.7863140
  10.9116700   3.1232870  28.6304990  10.6459540   1.7729860  27.9996580
   5.9437090   7.2057960  19.1682750   5.3753990   6.7576210  18.5418660
   6.6526090   7.5650740  18.6347900   7.1703410   7.9546520  28.5258100
   7.5373540   7.4805090  29.2719440   6.9808470   8.8288090  28.8666440
   4.9602780   6.9955160  30.8442310   4.6559850   7.8747140  31.0692670
   5.9149240   7.0554950  30.8799750   3.4884570  11.2016150  21.4409160
   2.7146830  10.6613770  21.2807880   4.2179200  10.6822760  21.1026920
  14.2472550  10.1981510  27.2335550  14.9671670  10.6936800  26.8431660
  14.0454370   9.5199400  26.5889420   9.6291350  10.2690570  33.1204550
   9.5628660   9.3486240  32.8662140   8.9996490  10.3666010  33.8349190
  12.4230880   5.9639120  19.6727100  13.3110500   6.2756350  19.4978440
  12.3935970   5.0911370  19.2807680   3.5321970  10.8696530  25.0787970
   4.0500640  10.0664790  25.0244860   3.0805990  10.8075670  25.9204800
   8.4191470  12.1362810  20.3515270   8.7607170  12.8805040  19.8558590
   7.5904180  12.4493930  20.7140100   4.2179630   8.2942140  34.8753220
   3.9179770   8.4399320  33.9781040   4.9890870   7.7347430  34.7826610
   9.5608080  13.0911140  32.8708350   9.5752620  12.1592100  32.6527260
   8.8533180  13.1770900  33.5098120  14.6945150   7.2750960  19.1406960
  14.6108870   7.7065180  18.2903400  15.4139340   7.7349310  19.5733780
  15.7719290   9.7318480  32.2176930  15.0467480  10.3247260  32.0206320
  16.2994750   9.7242020  31.4190300  15.7232400  14.1293220  21.8689090
  15.0808560  13.4748840  22.1432810  15.3363060  14.5348310  21.0929760
  11.3018880  11.4578650  25.7160780  11.6542700  10.8606780  25.0562150
  10.4181210  11.1322880  25.8869030   7.3882160  12.2176340  23.1231190
   8.0753290  12.7645550  23.5038780   6.6014580  12.7617070  23.1580800
   6.6909370   9.2222370  22.7356550   7.1472150  10.0327620  22.9616740
   6.3397580   8.9045510  23.5675040   8.9941980  14.7328710  29.9648850
   9.6384200  14.9388090  30.6422270   9.3571420  13.9717110  29.5119700
  10.2674060  12.7361060  28.6826300  10.9096290  12.0354220  28.7958470
  10.7923410  13.5159500  28.5023190  14.1129780  13.0209680  18.4065440
  13.8867360  12.3040120  18.9990080  13.7225980  12.7722120  17.5687190
  12.0411680  13.5355960  31.8862360  12.3767920  14.1222650  32.5640280
  11.1212020  13.4048670  32.1160150  13.6946030  10.9381620  20.0679600
  13.4067730  11.3994310  20.8557480  14.4898200  10.4779390  20.3363820
   7.8700260  13.5847290  35.0550420   7.5497130  12.8656530  35.5996110
   7.1958620  14.2602360  35.1286480   5.9114430  14.4307740  19.9983570
   5.9024530  15.1637430  19.3828080   4.9912790  14.1839320  20.0910530
  11.0853860   3.8173450  30.4187220  11.4534680   2.9968660  30.7466790
  10.2252060   3.8775340  30.8342870  14.4515890   2.7730390  21.2274780
  13.8229050   2.8776060  20.5133010  13.9567810   2.9927170  22.0168660
   8.8974030  14.4935980  18.6608760   8.9986010  14.2899970  17.7310740
   7.9975770  14.2394260  18.8656540   6.4199920   5.0516340  22.6432660
   5.7116070   5.5202680  23.0846270   6.7044400   4.3938350  23.2777850
   8.0455850   6.4713040  30.6425190   8.5441100   6.9458860  31.3077040
   8.1878800   5.5476560  30.8495220  10.4515350   1.7767000  24.0828450
  10.3283130   1.7953130  23.1337960  11.3999910   1.8245940  24.2026850
   7.5392140  17.0122300  23.3556430   7.7933640  16.9743690  22.4335800
   6.5904620  16.8855630  23.3484680   4.6234940   3.3601420  20.0183370
   5.4725470   3.7971570  19.9523560   4.2566210   3.6721680  20.8455430
  15.2522710   2.6881000  31.4853580  14.7496310   3.4286400  31.8247390
  16.0679370   3.0765000  31.1690370  13.5444720   7.9314180  24.9314940
  12.6034860   7.9464410  25.1062630  13.8588790   7.1450140  25.3775240
   3.5226360   9.6133780  18.4918900   4.2889630   9.5015140  19.0544330
   3.6001050   8.9171750  17.8395670   2.2173120   7.0458850  19.1751790
   2.2976710   6.0986360  19.2869190   3.1092870   7.3765730  19.2812450
  15.5470300  15.1023030  26.6069200  15.6717720  15.9254200  27.0793010
  16.4135860  14.8913760  26.2593350   3.0187830  17.1954240  26.2786330
   3.7550310  16.6469700  26.5494900   3.4028750  18.0610250  26.1392320
   6.1290140  16.3684550  18.1011900   6.9218750  16.6573380  17.6493690
   5.6094490  15.9376720  17.4224380  10.8610740  12.4880180  35.4147320
  10.2548900  12.5111780  34.6743070  10.5564850  11.7563220  35.9514570
  12.2911110  16.2160470  34.0256730  13.2432860  16.1318490  33.9756970
  12.1439330  16.8802180  34.6990520  15.1820310  15.5954680  19.5248640
  14.8961820  15.1819820  18.7102820  14.9839860  16.5242390  19.4049160
   6.6467540  11.5887960  17.9654250   6.5418180  10.9740310  18.6915630
   6.4791760  11.0653850  17.1817260   6.7981860  10.2744760  33.9443480
   6.0327530  10.8429760  33.8598150   6.9797820   9.9820970  33.0511710
   9.8870270  10.6507990  18.5696240   9.3380370  11.0977290  19.2138980
  10.5089530  10.1457240  19.0933910  13.9405210  12.0050090  34.5018500
  14.6814680  12.3425850  33.9985960  13.1777890  12.1742150  33.9488270
   1.7767000   7.0103360  35.3058030   1.8172340   6.7117230  36.2143260
   2.6312500   7.4110970  35.1465550   5.5545390   9.6098910  20.4661540
   5.9761810   9.4438780  21.3092930   5.6796230   8.7999140  19.9716680
   3.7172810   5.5895460  33.2732520   3.1869270   5.0986410  32.6455860
   4.3860880   6.0179660  32.7390450   8.0673030   8.6336520  17.7138640
   8.5878690   7.9185540  17.3479790   8.7141430   9.2722390  18.0139150
  12.6150870  10.0564920  33.0373710  13.0291890  10.2110000  33.8864130
  11.6801870  10.1820140  33.1999490  13.0873040   7.3961080  35.0412860
  13.6693810   6.6413400  34.9533340  13.2634810   7.9268520  34.2644340
   4.2045110   2.5557830  33.3529810   4.1101980   1.9378580  32.6280680
   3.6242500   3.2824120  33.1259720   7.3766100  10.0085400  31.0069640
   7.7954210  10.8518130  30.8345880   6.4574730  10.1457440  30.7776420
   9.7130000   7.7401580  32.3907480   9.8326210   7.1442720  33.1302320
  10.5724000   7.7771270  31.9708780  12.0517900   8.2938770  30.9669990
  11.5253120   8.8181390  30.3635130  12.3949240   8.9266160  31.5979720
   4.4504290   5.6832140  17.4119700   4.2493350   4.8199500  17.7733040
   4.2796340   5.5965500  16.4741300   5.2273520  16.3138410  32.1227370
   4.6894610  17.0384470  31.8036070   5.4807480  15.8368750  31.3324710
   6.4798770   4.2822930  33.6483300   7.0698460   3.9738780  34.3361120
   5.6619010   3.8102680  33.8043200  11.2992200   3.8988740  33.8816320
  10.6107720   3.2370280  33.8166310  12.0198220   3.4527010  34.3264780
   3.2487090   2.7832760  17.3997580   3.5512990   2.7900190  16.4916730
   3.9881680   2.4330620  17.8965240   8.0835730  17.5489620  32.3814020
   8.0094430  18.4524760  32.6886390   7.1814570  17.2301520  32.3536090
   8.6321060  16.7148130  20.0040380   9.5271850  17.0533100  20.0259140
   8.6638690  15.9927540  19.3764660   2.2717220  12.0875180  18.2327380
   2.7092090  12.6304850  18.8884960   2.7564950  11.2622130  18.2423720
   4.0824940  13.2073220  23.3449610   3.7820480  13.0838190  24.2453520
   3.9762430  12.3481810  22.9365340  15.6115410  15.2451800  32.7106580
  15.0117400  15.3044360  31.9670500  15.7409310  14.3056780  32.8403430
  16.8516860  12.9869620  18.0476290  16.0209820  13.0546270  18.5183520
  17.0288690  13.8773740  17.7443150  16.3073320   9.7317100  20.5510490
  17.0692230  10.3013750  20.6570180  16.3227690   9.1644300  21.3218800
  17.3133290  10.5867200  25.3952420  17.6842120   9.8034520  24.9888390
  17.9535220  11.2756300  25.2169720  14.2967050  11.9703780  30.8082740
  13.4826890  12.4000940  31.0708530  14.7041250  12.5822190  30.1951790
  16.3592490  10.0251470  17.7083010  16.6341330  10.9330350  17.5802230
  16.1703230   9.9614000  18.6445000  12.7568100   3.0496320  19.0036640
  13.1752980   2.8627300  18.1633300  12.4504160   2.1975370  19.3139570
  16.2557830   7.9620460  22.7012440  15.8801430   7.1948390  22.2693730
  15.5260950   8.3443160  23.1887370  15.6457450   7.1091980  32.3351960
  15.4143540   6.8804730  31.4349910  15.9062000   8.0291530  32.2896850
  15.5308790   6.1877950  26.0019680  16.0546270   5.6940600  25.3709850
  16.1168210   6.3228310  26.7467250  15.7098510   6.2717820  29.5239230
  14.7601220   6.2381360  29.6384220  15.8911520   7.1817930  29.2889000
  15.0208760   5.4451300  21.9412090  15.5167880   5.2122170  22.7260970
  14.8224830   4.6063140  21.5249730  16.4495920   4.0812250  24.4749770
  16.3395200   3.9268290  25.4132040  17.2103510   3.5533190  24.2325180
  17.3386190   1.9120170  17.7155910  18.2635500   1.7801350  17.5074200
  17.3161980   1.9912990  18.6692360  17.4124680   2.6830830  20.3412620
  16.6176180   2.6175950  20.8705530  17.6167960   3.6181470  20.3297970
  14.3543100  16.7222380  24.3351010  14.9502170  16.4006950  23.6585430
  14.6121250  16.2494200  25.1264280   2.2605670  13.1540290  34.4841640
   2.2175300  12.7833200  35.3656100   2.3916680  14.0917860  34.6243460
   5.9611700  14.7099880  30.0851360   5.7203060  14.9774440  29.1981880
   6.9014340  14.8805610  30.1402220  17.2215860  16.7294260  30.8862000
  16.7274140  17.1263130  30.1689130  16.6129150  16.1043470  31.2799280
  14.9055310  17.3717680  28.1648740  14.4458280  18.1233490  27.7906760
  14.2767770  16.6524150  28.1063540   5.3351030  15.6805920  27.3396870
   5.8516050  15.0693280  26.8145130   5.9848410  16.1834700  27.8307880
   8.0746530  16.5714410  28.1665850   8.3624340  16.3168710  27.2898860
   8.5869750  16.0191770  28.7571420   7.1777760   2.7291360  24.2578390
   6.3652270   2.3548250  23.9174270   7.6819400   1.9736440  24.5599580
   8.1418890  17.4930510  35.5334050   9.0686200  17.2574780  35.5770010
   8.1269320  18.3202510  35.0520080  16.3763950  17.0356080  22.5308300
  16.5516140  16.3493820  21.8869220  15.6785520  17.5603130  22.1384970
   4.2191600  17.4250920  20.0843610   4.9510420  17.1410200  19.5367500
   4.4785270  17.1864200  20.9742990   3.3806390  13.5415650  20.0889940
   2.7515270  14.0100750  20.6375770   3.4954220  12.6964870  20.5236130
  14.7096450  16.7200370  35.3575090  15.5021770  16.2249600  35.1501050
  15.0029600  17.3990510  35.9650700  10.8356110   7.5921310   6.2391140
  10.7550160   6.6775920   5.9682850  10.4220530   8.0888380   5.5330850
   8.9674150   9.3700330   8.1200410   8.1916250   8.8900770   8.4098980
   9.6187080   8.6905980   7.9456570   2.9839980   9.6820140   8.9976170
   2.1524860   9.4268850   9.3972680   3.5920960   9.7530910   9.7334090
  12.9881580  13.7760520   6.8999540  12.5263110  13.0047760   7.2286710
  13.8007130  13.8026590   7.4051990   2.9641240  13.7160230   9.1934190
   3.2669280  12.8257970   9.0144410   3.7084830  14.2730450   8.9656440
   9.2144890  16.0618530   6.5203530   8.5956330  16.5176030   5.9497970
  10.0696670  16.2169990   6.1193230   8.4083140  12.0457520   8.1270570
   8.3391420  11.1047460   7.9659700   9.1703000  12.1358930   8.6993140
   9.4388310   4.8527900   8.3539500   9.8153130   3.9799780   8.2413170
   9.3407820   5.1886600   7.4629940   3.5693320   3.2253530   3.8156940
   3.6760070   4.1257260   4.1225700   2.6585680   3.1771500   3.5251590
  13.2212430   2.3478340   5.2867840  14.0422050   1.8574910   5.3293320
  13.2546510   2.9376000   6.0399680   5.4101050   6.1939900   8.1482120
   5.9179270   6.6920870   8.7887140   5.9414290   5.4175100   7.9721480
  17.5111980   4.3645090  11.8511470  16.8064150   4.7526800  11.3326580
  17.7769900   5.0595380  12.4532400  10.0808240  10.9457770   3.9135440
   9.4625510  11.4107220   3.3498160  10.5931490  11.6385250   4.3304950
   4.9440000  10.4733640  10.5919040   4.6109380  11.1002560  11.2340110
   5.1206680  10.9995520   9.8120710  13.4573910   4.2878720   8.0595380
  12.7529480   4.5763610   8.6398490  13.8186070   5.0978830   7.6994940
   3.3752480   2.5448420  10.4215990   3.7169290   3.3890470  10.1269860
   2.4368290   2.6932160  10.5381330   4.1559100  12.4414440  12.4068220
   4.7733100  13.1165520  12.1252670   3.2952220  12.8502420  12.3155720
  15.0736690  13.9053850  10.3222860  14.3900210  14.5752960  10.3139530
  15.6130980  14.1034500   9.5567720  16.5260830   3.7333510   8.4504590
  15.5785740   3.7672490   8.5820020  16.8510820   4.5472460   8.8353950
  12.6095430  15.7497980   9.0368040  12.6222590  15.3460270   8.1690300
  12.0570650  16.5245270   8.9329470  13.9040850  12.4714200   4.1258210
  13.7937180  11.5288530   4.2507630  13.9009100  12.8329840   5.0120970
  12.0080870  10.6527820  10.3650650  12.4249660  10.4387930   9.5304110
  12.7320690  10.9100610  10.9359270   9.4461130   8.0979520   3.4820700
   8.5190410   8.0316900   3.7109170   9.5985950   9.0359650   3.3675940
  15.9542970   9.0515040  10.4566890  15.1261600   9.1208130   9.9817020
  16.5493450   9.6369350   9.9882720  13.4758420   9.6599820   3.9855950
  12.8570840   9.3219370   3.3382250  13.4582870   9.0159580   4.6935140
  12.9184980   5.8384360  11.4021760  12.5056160   6.6638070  11.6561750
  12.1860930   5.2529400  11.2098120   5.0517770   8.6244260   6.2640430
   4.6474770   7.9121510   5.7686330   5.1380890   8.2797500   7.1528470
   5.5199470  12.3111820   8.4279640   5.2227760  11.7057290   7.7487420
   6.4699290  12.3489130   8.3169000   3.7646390   5.3987470  10.0439470
   4.3160980   5.5082810   9.2692720   4.2789900   5.7725070  10.7594700
  13.6085080  15.8843690  12.0902740  13.1315640  16.6915880  11.8975350
  12.9246870  15.2322020  12.2428950   4.6117900  12.0493510  15.0787440
   3.7146430  12.2733480  15.3260840   4.6370770  12.1728450  14.1298840
   3.4389120   8.9206830  13.6544810   3.2996890   9.7929630  14.0232210
   2.5570480   8.5779640  13.5092750   9.7618500  13.8382700   4.9609940
  10.2014410  14.5807030   4.5465330   9.7005390  14.0809270   5.8848900
   5.2369470  14.8628530  15.8629960   5.2084900  15.2671480  14.9958390
   5.0734440  13.9338890  15.7001560  17.1884290  15.6455630  17.1594130
  17.6644010  16.1238520  17.8383210  17.8091450  15.5773120  16.4339630
  16.5917540  12.8368480  14.3194140  16.7180600  12.5980360  13.4011320
  16.6338920  12.0053020  14.7916220  10.4534280  16.5396480  12.8888950
  10.9678950  16.4504490  13.6911380   9.6103360  16.8856180  13.1816860
  12.4288680  16.8251820   2.3172950  12.2689820  16.5354760   3.2154780
  12.2635390  16.0491950   1.7818180   4.9077060  16.6050350   4.0944570
   4.7319540  15.6885890   3.8812370   4.0532800  16.9637640   4.3342370
  11.6964740  15.9602090   4.9519440  12.1521690  15.1791470   5.2658060
  12.0357260  16.6708910   5.4960620  16.4441550   4.8900940  15.2843880
  15.8285820   5.3980610  14.7559340  16.1237970   3.9899270  15.2269820
   8.5055870   3.7292830  12.7506070   8.0435240   3.9375850  13.5626010
   8.1033980   2.9152180  12.4476740  13.5060380   4.9501780  13.8802730
  12.6553970   4.6507530  14.2011800  13.3462170   5.1943790  12.9686550
  10.6010090   6.4503530  15.9801520  10.9263500   5.6167280  15.6403750
  11.3890420   6.9732050  16.1279850   4.0100280   5.9857880   4.8752000
   3.7841200   5.7695050   5.7798620   3.2292810   6.4186340   4.5297970
  11.2398040   5.9921250   3.4742650  10.6406930   6.7157050   3.2906270
  11.7877650   5.9298030   2.6919100   6.4499490   6.8843460  15.5412270
   6.3543090   5.9438190  15.3912670   7.2931470   7.1058530  15.1460340
   9.8462910   4.6284790   5.5045930  10.2392480   4.9456990   4.6914620
  10.2079760   3.7496670   5.6190450   8.1555080   3.3792100  16.7642790
   7.4653400   3.1864300  17.3988880   8.8987380   3.6626740  17.2967090
  10.4318050   7.2190540   9.5996710   9.6999170   7.7277350   9.9486810
  10.0342390   6.4020520   9.2985490   6.8695440   3.8944740   8.0049200
   6.8731500   3.4534690   7.1553740   7.7646560   4.2162070   8.1121020
   2.7197820   3.7771230   6.9643410   2.3797870   4.2546460   7.7210460
   1.9575140   3.3236350   6.6044510  10.8943960   2.6724220   9.0119650
  10.9116700   3.1232870   9.8561500  10.6459540   1.7729860   9.2253090
   7.1703410   7.9546520   9.7514610   7.5373540   7.4805090  10.4975950
   6.9808470   8.8288090  10.0922950   4.9602780   6.9955160  12.0698820
   4.6559850   7.8747140  12.2949180   5.9149240   7.0554950  12.1056260
   3.4884570  11.2016150   2.6665670   2.7146830  10.6613770   2.5064390
   4.2179200  10.6822760   2.3283430  14.2472550  10.1981510   8.4592060
  14.9671670  10.6936800   8.0688170  14.0454370   9.5199400   7.8145930
   9.6291350  10.2690570  14.3461060   9.5628660   9.3486240  14.0918650
   8.9996490  10.3666010  15.0605700   3.5321970  10.8696530   6.3044480
   4.0500640  10.0664790   6.2501370   3.0805990  10.8075670   7.1461310
   4.2179630   8.2942140  16.1009730   3.9179770   8.4399320  15.2037550
   4.9890870   7.7347430  16.0083120   9.5608080  13.0911140  14.0964860
   9.5752620  12.1592100  13.8783770   8.8533180  13.1770900  14.7354630
  15.7719290   9.7318480  13.4433440  15.0467480  10.3247260  13.2462830
  16.2994750   9.7242020  12.6446810  15.7232400  14.1293220   3.0945600
  15.0808560  13.4748840   3.3689320  15.3363060  14.5348310   2.3186270
  11.3018880  11.4578650   6.9417290  11.6542700  10.8606780   6.2818660
  10.4181210  11.1322880   7.1125540   7.3882160  12.2176340   4.3487700
   8.0753290  12.7645550   4.7295290   6.6014580  12.7617070   4.3837310
   6.6909370   9.2222370   3.9613060   7.1472150  10.0327620   4.1873250
   6.3397580   8.9045510   4.7931550   8.9941980  14.7328710  11.1905360
   9.6384200  14.9388090  11.8678780   9.3571420  13.9717110  10.7376210
  10.2674060  12.7361060   9.9082810  10.9096290  12.0354220  10.0214980
  10.7923410  13.5159500   9.7279700  12.0411680  13.5355960  13.1118870
  12.3767920  14.1222650  13.7896790  11.1212020  13.4048670  13.3416660
   7.8700260  13.5847290  16.2806930   7.5497130  12.8656530  16.8252620
   7.1958620  14.2602360  16.3542990  11.0853860   3.8173450  11.6443730
  11.4534680   2.9968660  11.9723300  10.2252060   3.8775340  12.0599380
  14.4515890   2.7730390   2.4531290  13.8229050   2.8776060   1.7389520
  13.9567810   2.9927170   3.2425170   6.4199920   5.0516340   3.8689170
   5.7116070   5.5202680   4.3102780   6.7044400   4.3938350   4.5034360
   8.0455850   6.4713040  11.8681700   8.5441100   6.9458860  12.5333550
   8.1878800   5.5476560  12.0751730  10.4515350   1.7767000   5.3084960
  10.3283130   1.7953130   4.3594470  11.3999910   1.8245940   5.4283360
   7.5392140  17.0122300   4.5812940   7.7933640  16.9743690   3.6592310
   6.5904620  16.8855630   4.5741190  15.2522710   2.6881000  12.7110090
  14.7496310   3.4286400  13.0503900  16.0679370   3.0765000  12.3946880
  13.5444720   7.9314180   6.1571450  12.6034860   7.9464410   6.3319140
  13.8588790   7.1450140   6.6031750  15.5470300  15.1023030   7.8325710
  15.6717720  15.9254200   8.3049520  16.4135860  14.8913760   7.4849860
   3.0187830  17.1954240   7.5042840   3.7550310  16.6469700   7.7751410
   3.4028750  18.0610250   7.3648830  10.8610740  12.4880180  16.6403830
  10.2548900  12.5111780  15.8999580  10.5564850  11.7563220  17.1771080
  12.2911110  16.2160470  15.2513240  13.2432860  16.1318490  15.2013480
  12.1439330  16.8802180  15.9247030   6.7981860  10.2744760  15.1699990
   6.0327530  10.8429760  15.0854660   6.9797820   9.9820970  14.2768220
  13.9405210  12.0050090  15.7275010  14.6814680  12.3425850  15.2242470
  13.1777890  12.1742150  15.1744780   1.7767000   7.0103360  16.5314540
   1.8172340   6.7117230  17.4399770   2.6312500   7.4110970  16.3722060
   3.7172810   5.5895460  14.4989030   3.1869270   5.0986410  13.8712370
   4.3860880   6.0179660  13.9646960  12.6150870  10.0564920  14.2630220
  13.0291890  10.2110000  15.1120640  11.6801870  10.1820140  14.4256000
  13.0873040   7.3961080  16.2669370  13.6693810   6.6413400  16.1789850
  13.2634810   7.9268520  15.4900850   4.2045110   2.5557830  14.5786320
   4.1101980   1.9378580  13.8537190   3.6242500   3.2824120  14.3516230
   7.3766100  10.0085400  12.2326150   7.7954210  10.8518130  12.0602390
   6.4574730  10.1457440  12.0032930   9.7130000   7.7401580  13.6163990
   9.8326210   7.1442720  14.3558830  10.5724000   7.7771270  13.1965290
  12.0517900   8.2938770  12.1926500  11.5253120   8.8181390  11.5891640
  12.3949240   8.9266160  12.8236230   5.2273520  16.3138410  13.3483880
   4.6894610  17.0384470  13.0292580   5.4807480  15.8368750  12.5581220
   6.4798770   4.2822930  14.8739810   7.0698460   3.9738780  15.5617630
   5.6619010   3.8102680  15.0299710  11.2992200   3.8988740  15.1072830
  10.6107720   3.2370280  15.0422820  12.0198220   3.4527010  15.5521290
   8.0835730  17.5489620  13.6070530   8.0094430  18.4524760  13.9142900
   7.1814570  17.2301520  13.5792600   4.0824940  13.2073220   4.5706120
   3.7820480  13.0838190   5.4710030   3.9762430  12.3481810   4.1621850
  15.6115410  15.2451800  13.9363090  15.0117400  15.3044360  13.1927010
  15.7409310  14.3056780  14.0659940  16.3073320   9.7317100   1.7767000
  17.0692230  10.3013750   1.8826690  16.3227690   9.1644300   2.5475310
  17.3133290  10.5867200   6.6208930  17.6842120   9.8034520   6.2144900
  17.9535220  11.2756300   6.4426230  14.2967050  11.9703780  12.0339250
  13.4826890  12.4000940  12.2965040  14.7041250  12.5822190  11.4208300
  16.2557830   7.9620460   3.9268950  15.8801430   7.1948390   3.4950240
  15.5260950   8.3443160   4.4143880  15.6457450   7.1091980  13.5608470
  15.4143540   6.8804730  12.6606420  15.9062000   8.0291530  13.5153360
  15.5308790   6.1877950   7.2276190  16.0546270   5.6940600   6.5966360
  16.1168210   6.3228310   7.9723760  15.7098510   6.2717820  10.7495740
  14.7601220   6.2381360  10.8640730  15.8911520   7.1817930  10.5145510
  15.0208760   5.4451300   3.1668600  15.5167880   5.2122170   3.9517480
  14.8224830   4.6063140   2.7506240  16.4495920   4.0812250   5.7006280
  16.3395200   3.9268290   6.6388550  17.2103510   3.5533190   5.4581690
  14.3543100  16.7222380   5.5607520  14.9502170  16.4006950   4.8841940
  14.6121250  16.2494200   6.3520790   2.2605670  13.1540290  15.7098150
   2.2175300  12.7833200  16.5912610   2.3916680  14.0917860  15.8499970
   5.9611700  14.7099880  11.3107870   5.7203060  14.9774440  10.4238390
   6.9014340  14.8805610  11.3658730  17.2215860  16.7294260  12.1118510
  16.7274140  17.1263130  11.3945640  16.6129150  16.1043470  12.5055790
  14.9055310  17.3717680   9.3905250  14.4458280  18.1233490   9.0163270
  14.2767770  16.6524150   9.3320050   5.3351030  15.6805920   8.5653380
   5.8516050  15.0693280   8.0401640   5.9848410  16.1834700   9.0564390
   8.0746530  16.5714410   9.3922360   8.3624340  16.3168710   8.5155370
   8.5869750  16.0191770   9.9827930   7.1777760   2.7291360   5.4834900
   6.3652270   2.3548250   5.1430780   7.6819400   1.9736440   5.7856090
   8.1418890  17.4930510  16.7590560   9.0686200  17.2574780  16.8026520
   8.1269320  18.3202510  16.2776590  16.3763950  17.0356080   3.7564810
  16.5516140  16.3493820   3.1125730  15.6785520  17.5603130   3.3641480
  14.7096450  16.7200370  16.5831600  15.5021770  16.2249600  16.3757560
  15.0029600  17.3990510  17.1907210
  72.5513360  72.9761680  71.7943520  90.0000000  90.0000000  90.0000000
