default_name
 76664
  37.7717012  36.5314873  35.7317649  37.9617012  35.2714873  36.4817649
  36.8917012  33.0514873  34.3517649  36.7017012  34.6314873  37.2917649
  35.3917012  34.7214873  36.5017649  36.0217012  35.0414873  34.0517649
  34.2517012  35.4414873  37.1717649  34.9317012  37.6514873  36.1117649
  37.3017012  37.4614873  33.2517649  34.6317012  36.9414873  37.3717649
  39.1517012  38.4114873  33.2617649  36.2417012  38.4114873  36.1717649
  34.4817012  37.4014873  33.6317649  37.5517012  37.6714873  36.6117649
  34.2917012  39.5214873  33.8117649  38.8317012  36.6914873  34.7917649
  38.3817012  37.6014873  33.7817649  35.0917012  33.7514873  35.5017649
  36.0817012  33.9614873  34.5417649  33.8017012  38.3514873  35.5417649
  33.9117012  38.3914873  34.0717649  36.4517012  39.0214873  35.2817649
  36.0717012  39.1914873  36.9317649  37.5417012  37.2414873  37.6217649
  38.3617012  38.4114873  36.6317649  38.8817012  35.7814873  34.1917649
  39.7317012  37.0814873  35.2917649  35.1617012  32.7314873  35.8917649
  34.1517012  33.9414873  34.9717649  33.6017012  39.3414873  35.9617649
  32.9617012  37.6514873  35.6617649  38.2817012  34.5114873  35.7617649
  38.7917012  35.4514873  37.1917649  36.6117012  35.1014873  38.2717649
  36.9717012  33.6214873  37.6017649  33.9517012  34.8514873  38.0417649
  33.3617012  35.5114873  36.5217649  35.4217012  37.0614873  38.1217649
  33.7817012  37.3914873  37.8917649  59.3847012  65.7404873  64.6667649
   5.8932390  50.4223570  48.1210290  86.4979960  95.4056600  94.1599460
  86.4174010  94.4911210  93.8891170  86.0844380  95.9023670  93.4539170
  77.0555780  92.4557320  90.7026880  76.1672480  92.7973290  90.6006760
  77.3396970  92.2557640  89.8107710  79.2317170  91.0388820  91.7365260
  79.3383920  91.9392550  92.0434020  78.3209530  90.9906790  91.4459910
  88.8836280  90.1613630  93.2076160  89.7045900  89.6710200  93.2501640
  88.9170360  90.7511290  93.9608000  82.7204220  87.8465980  94.6668900
  83.0279200  87.2912870  93.9504400  81.7904920  87.9810440  94.4841890
  85.1084980  95.9114810  91.4029020  84.1814260  95.8452190  91.6317490
  85.2609800  96.8494940  91.2884260  85.0954060  92.1831810  88.3996180
  84.1557730  92.3445770  88.4848640  85.4137320  92.9017490  87.8532170
  80.7141620  96.4379550  94.1848750  80.3098620  95.7256800  93.6894650
  80.8004740  96.0932790  95.0736790  77.4146250  95.3324530  91.6855400
  77.2943850  96.0586620  91.0736670  77.1047140  94.5627440  91.2083310
  79.8809910  88.6759600  95.0679070  79.4378060  89.4569140  94.7363590
  80.4394900  88.9989490  95.7750010  82.9968730  88.2970300  89.9484900
  82.3722910  88.2930170  90.6738210  82.9098850  87.4301260  89.5520870
  79.6724130  93.7993170  92.7960320  79.4465050  93.5830340  93.7006940
  78.8916660  94.2321630  92.4506290  86.9021890  93.8056540  91.3950970
  86.3030780  94.5292340  91.2114590  87.4501500  93.7433320  90.6127420
  85.5086760  92.4420080  93.4254250  85.9016330  92.7592280  92.6122940
  85.8703610  91.5631960  93.5398770  74.7321160  92.9741000  86.8587170
  74.6495830  93.9171760  87.0002160  74.3804220  92.8315910  85.9799520
  82.5319290  91.7080030  95.9257520  82.5355350  91.2669980  95.0762060
  83.4270410  92.0297360  96.0329340  78.3821670  91.5906520  94.8851730
  78.0421720  92.0681750  95.6418780  77.6198990  91.1371640  94.5252830
  82.5939440  92.7092110  88.9164280  82.7152260  92.6678590  89.8650100
  82.2087950  93.5716260  88.7611010  81.6060940  95.0193250  88.3147580
  81.0377840  94.5711500  87.6883490  82.3149940  95.3786030  87.7812730
  75.6967750  90.5125500  93.8016400  75.4114670  90.1481170  94.6395020
  75.6346610  89.7805960  93.1879540  85.3706340  89.4054760  90.5229770
  84.5570950  88.9067930  90.4475080  85.1768290  90.2453010  90.1066120
  88.0854730  93.7774410  88.8191930  88.9734350  94.0891640  88.6443270
  88.0559820  92.9046660  88.4272510  75.1898410  95.6484450  87.7613100
  76.0593260  95.9309250  88.0449020  74.6988730  96.4620320  87.6461910
  78.2545000  87.3795310  92.3543900  78.1259630  87.3713210  93.3028820
  77.4307020  87.7178400  92.0034910  90.1139740  90.5865680  90.3739610
  89.4852900  90.6911350  89.6597840  89.6191660  90.8062460  91.1633490
  82.0823770  92.8651630  91.7897490  81.3739920  93.3337970  92.2311100
  82.3668250  92.2073640  92.4242680  86.1139200  89.5902290  93.2293280
  85.9906980  89.6088420  92.2802790  87.0623760  89.6381230  93.3491680
  80.2858790  91.1736710  89.1648200  81.1349320  91.6106860  89.0988390
  79.9190060  91.4856970  89.9920260  89.2068570  95.7449470  94.0779770
  88.2658710  95.7599700  94.2527460  89.5212640  94.9585430  94.5240070
  77.8796970  94.8594140  88.3216620  77.9600560  93.9121650  88.4334020
  78.7716720  95.1901020  88.4277280  83.7296880  96.4471810  86.8603470
  84.2502540  95.7320830  86.4944620  84.3765280  97.0857680  87.1603980
  80.1128140  93.4967430  86.5584530  79.9117200  92.6334790  86.9197870
  79.9420190  93.4100790  85.6206130  87.5916450  88.3075660  89.0871410
  87.8718740  87.4643560  89.4430830  86.8182180  88.5398770  89.6010160
  78.9110940  90.5968050  86.5462410  79.2136840  90.6035480  85.6381560
  79.6505530  90.2465910  87.0430070  82.1295870  89.5402670  87.5318610
  81.7817870  88.8626660  86.9521060  82.3308640  89.0792180  88.3462000
  75.4701510  96.0690320  93.9282980  74.8150350  95.8001960  93.2842680
  76.3079460  95.9594800  93.4784960  88.4191950  90.8631610  88.1501470
  88.8376830  90.6762590  87.3098130  88.1128010  90.0110660  88.4604400
  74.6839590  93.2789250  89.8708310  73.7803670  93.5419450  89.6959970
  75.1680210  93.5500420  89.0908270  77.2266800  92.3354790  87.7802690
  77.9358500  91.9138010  87.2949970  76.5106740  92.4030020  87.1486040
  76.8740960  88.3894120  86.8205340  77.5969090  88.9303060  87.1386560
  77.1465480  88.1157540  85.9446880  89.5068460  88.8263000  95.9376280
  89.9476550  88.7708100  95.0897880  89.2376050  89.7421010  96.0086460
  76.2987800  88.4287380  90.4140910  77.0567160  88.5416260  89.8404940
  75.8364970  89.2656580  90.3684340  82.8401610  90.5426650  93.4043220
  82.0276120  90.1683540  93.0639100  83.3443250  89.7871730  93.7064410
  87.3426590  87.2069100  94.6426290  87.9455960  87.7789310  95.1174810
  86.6019580  87.7708540  94.4200190  90.4861190  87.6090660  89.9166570
  90.6811820  88.5074110  90.1834000  89.6991060  87.3777740  90.4099520
  78.6712950  88.9551430  88.9542880  79.2005710  88.1681230  88.8250830
  79.3041270  89.6342620  89.1878410  80.8650790  88.6926570  92.0088270
  80.2353530  87.9913880  92.1758400  80.3255930  89.4530700  91.7921430
  86.4979960  95.4056600  75.3855970  86.4174010  94.4911210  75.1147680
  86.0844380  95.9023670  74.6795680  84.6298000  97.1835620  77.2665240
  83.8540100  96.7036060  77.5563810  85.2810930  96.5041270  77.0921400
  77.0555780  92.4557320  71.9283390  76.1672480  92.7973290  71.8263270
  77.3396970  92.2557640  71.0364220  75.0188790  95.0562970  77.8123090
  75.5904900  94.2885170  77.8126730  75.0190330  95.3551730  76.9029700
  76.2613660  90.4647330  79.5992020  76.0816500  89.5673080  79.8794780
  75.8593740  91.0119200  80.2738970  85.1012160  92.6663190  77.5004330
  85.4776980  91.7935070  77.3878000  85.0031670  93.0021890  76.6094770
  79.2317170  91.0388820  72.9621770  79.3383920  91.9392550  73.2690530
  78.3209530  90.9906790  72.6716420  88.8836280  90.1613630  74.4332670
  89.7045900  89.6710200  74.4758150  88.9170360  90.7511290  75.1864510
  76.8800330  92.9607830  78.2074360  77.5610440  93.2246200  78.8261760
  76.5648380  92.1208700  78.5412370  81.0724900  94.0075190  77.2946950
  81.5803120  94.5056160  77.9351970  81.6038140  93.2310390  77.1186310
  79.3561000  88.6473750  81.5610370  79.3579440  89.1646140  80.7556270
  78.5265310  88.1703930  81.5380300  89.1197760  92.1014010  77.2060210
  88.4153330  92.3898900  77.7863320  89.4809920  92.9114120  76.8459770
  79.0376330  90.3583710  79.5680820  79.3793140  91.2025760  79.2734690
  78.0992140  90.5067450  79.6846160  82.7204220  87.8465980  75.8925410
  83.0279200  87.2912870  75.1760910  81.7904920  87.9810440  75.7098400
  85.1084980  95.9114810  72.6285530  84.1814260  95.8452190  72.8574000
  85.2609800  96.8494940  72.5140770  85.0954060  92.1831810  69.6252690
  84.1557730  92.3445770  69.7105150  85.4137320  92.9017490  69.0788680
  88.5808830  93.6519650  80.5486590  88.1680010  94.4773360  80.8026580
  87.8484780  93.0664690  80.3562950  80.7141620  96.4379550  75.4105260
  80.3098620  95.7256800  74.9151160  80.8004740  96.0932790  76.2993300
  79.4270240  93.2122760  79.1904300  79.9784830  93.3218100  78.4157550
  79.9413750  93.5860360  79.9059530  77.4146250  95.3324530  72.9111910
  77.2943850  96.0586620  72.2993180  77.1047140  94.5627440  72.4339820
  79.8809910  88.6759600  76.2935580  79.4378060  89.4569140  75.9620100
  80.4394900  88.9989490  77.0006520  84.1679720  91.5428120  81.8970900
  83.7059090  91.7511140  82.7090840  83.7657830  90.7287470  81.5941570
  89.1684230  92.7637070  83.0267560  88.3177820  92.4642820  83.3476630
  89.0086020  93.0079080  82.1151380  86.2633940  94.2638820  85.1266350
  86.5887350  93.4302570  84.7868580  87.0514270  94.7867340  85.2744680
  82.9968730  88.2970300  71.1741410  82.3722910  88.2930170  71.8994720
  82.9098850  87.4301260  70.7777380  81.9185810  89.2206930  78.1525180
  82.2158140  90.1269760  78.0717200  82.4671370  88.7325710  77.5384750
  79.6724130  93.7993170  74.0216830  79.4465050  93.5830340  74.9263450
  78.8916660  94.2321630  73.6762800  86.9021890  93.8056540  72.6207480
  86.3030780  94.5292340  72.4371100  87.4501500  93.7433320  71.8383930
  82.1123340  94.6978750  84.6877100  82.0166940  93.7573480  84.5377500
  82.9555320  94.9193820  84.2925170  85.5086760  92.4420080  74.6510760
  85.9016330  92.7592280  73.8379450  85.8703610  91.5631960  74.7655280
  77.2433880  91.1092420  82.8410880  76.8497270  91.9567630  83.0483660
  76.5552280  90.4718790  83.0319520  83.8178930  91.1927390  85.9107620
  83.1277250  90.9999590  86.5453710  84.5611230  91.4762030  86.4431920
  74.5450930  89.0320880  76.8740960  74.2563980  89.6023740  77.5865940
  75.2896690  88.5525330  77.2372190  74.7321160  92.9741000  68.0843680
  74.6495830  93.9171760  68.2258670  74.3804220  92.8315910  67.2056030
  86.0941900  95.0325830  78.7461540  85.3623020  95.5412640  79.0951640
  85.6966240  94.2155810  78.4450320  82.5319290  91.7080030  77.1514030
  82.5355350  91.2669980  76.3018570  83.4270410  92.0297360  77.2585850
  78.3821670  91.5906520  76.1108240  78.0421720  92.0681750  76.8675290
  77.6198990  91.1371640  75.7509340  82.5939440  92.7092110  70.1420790
  82.7152260  92.6678590  71.0906610  82.2087950  93.5716260  69.9867520
  86.5567810  90.4859510  78.1584480  86.5740550  90.9368160  79.0026330
  86.3083390  89.5865150  78.3717920  81.6060940  95.0193250  69.5404090
  81.0377840  94.5711500  68.9140000  82.3149940  95.3786030  69.0069240
  89.9838560  87.8991690  83.9970860  90.3084330  87.1681350  84.5228840
  90.0195070  87.5805330  83.0951850  82.8327260  95.7681810  78.8979440
  83.1997390  95.2940380  79.6440780  82.6432320  96.6423380  79.2387780
  75.6967750  90.5125500  75.0272910  75.4114670  90.1481170  75.8651530
  75.6346610  89.7805960  74.4136050  80.6226630  94.8090450  81.2163650
  80.3183700  95.6882430  81.4414010  81.5773090  94.8690240  81.2521090
  85.3706340  89.4054760  71.7486280  84.5570950  88.9067930  71.6731590
  85.1768290  90.2453010  71.3322630  88.0854730  93.7774410  70.0448440
  88.9734350  94.0891640  69.8699780  88.0559820  92.9046660  69.6529020
  76.6790360  95.6493190  82.3635010  76.3205300  96.3147040  82.9508350
  76.3844920  94.8176740  82.7347630  79.8803480  96.1077430  85.2474560
  79.5803620  96.2534610  84.3502380  80.6514720  95.5482720  85.1547950
  75.1898410  95.6484450  68.9869610  76.0593260  95.9309250  69.2705530
  74.6988730  96.4620320  68.8718420  78.2545000  87.3795310  73.5800410
  78.1259630  87.3713210  74.5285330  77.4307020  87.7178400  73.2291420
  75.2538930  89.1386430  83.0407110  74.5397450  89.3383350  83.6459720
  75.6733970  88.3626000  83.4121910  86.7477710  91.6308740  80.7908560
  87.1158530  90.8103950  81.1188130  85.8875910  91.6910630  81.2064210
  90.1139740  90.5865680  71.5996120  89.4852900  90.6911350  70.8854350
  89.6191660  90.8062460  72.3890000  82.0823770  92.8651630  73.0154000
  81.3739920  93.3337970  73.4567610  82.3668250  92.2073640  73.6499190
  83.7079700  94.2848330  81.0146530  84.2064950  94.7594150  81.6798380
  83.8502650  93.3611850  81.2216560  86.1139200  89.5902290  74.4549790
  85.9906980  89.6088420  73.5059300  87.0623760  89.6381230  74.5748190
  80.2858790  91.1736710  70.3904710  81.1349320  91.6106860  70.3244900
  79.9190060  91.4856970  71.2176770  89.2068570  95.7449470  75.3036280
  88.2658710  95.7599700  75.4783970  89.5212640  94.9585430  75.7496580
  77.8796970  94.8594140  69.5473130  77.9600560  93.9121650  69.6590530
  78.7716720  95.1901020  69.6533790  75.4067770  96.6809060  84.7829300
  75.9106790  96.1016340  85.3545530  74.6675190  96.9649290  85.3205670
  77.4390850  94.8238650  85.6779370  77.4796190  94.5252520  86.5864600
  78.2936350  95.2246260  85.5186890  79.3796660  93.4030750  83.6453860
  78.8493120  92.9121700  83.0177200  80.0484730  93.8314950  83.1111790
  83.7296880  96.4471810  68.0859980  84.2502540  95.7320830  67.7201130
  84.3765280  97.0857680  68.3860490  88.7496890  95.2096370  85.4134200
  89.3317660  94.4548690  85.3254680  88.9258660  95.7403810  84.6365680
  79.8668960  90.3693120  83.7251150  79.7725830  89.7513870  83.0002020
  79.2866350  91.0959410  83.4981060  82.6330400  88.9266360  80.7578540
  82.1847700  88.9490620  79.9124090  81.9995600  88.5285380  81.3548840
  85.3753850  95.5536870  82.7628820  85.4950060  94.9578010  83.5023660
  86.2347850  95.5906560  82.3430120  87.7141750  96.1074060  81.3391330
  87.1876970  96.6316680  80.7356470  88.0573090  96.7401450  81.9701060
  80.1128140  93.4967430  67.7841040  79.9117200  92.6334790  68.1454380
  79.9420190  93.4100790  66.8462640  82.1422620  92.0958220  84.0204640
  82.7322310  91.7874070  84.7082460  81.3242860  91.6237970  84.1764540
  86.9616050  91.7124030  84.2537660  86.2731570  91.0505570  84.1887650
  87.6822070  91.2662300  84.6986120  87.5916450  88.3075660  70.3127920
  87.8718740  87.4643560  70.6687340  86.8182180  88.5398770  70.8266670
  78.9110940  90.5968050  67.7718920  79.2136840  90.6035480  66.8638070
  79.6505530  90.2465910  68.2686580  82.1295870  89.5402670  68.7575120
  81.7817870  88.8626660  68.1777570  82.3308640  89.0792180  69.5718510
  75.4701510  96.0690320  75.1539490  74.8150350  95.8001960  74.5099190
  76.3079460  95.9594800  74.7041470  88.4191950  90.8631610  69.3757980
  88.8376830  90.6762590  68.5354640  88.1128010  90.0110660  69.6860910
  76.5077440  96.4542890  79.6942830  76.8750480  96.3670290  80.5738850
  75.9388260  95.6909440  79.5949690  76.0593440  93.3651980  83.6001250
  75.1649490  93.3318740  83.9394960  76.5990990  93.5638770  84.3652500
  89.7469370  90.1483700  85.4853000  90.6239550  90.1567100  85.8687000
  89.7590210  89.4114540  84.8745350  74.6839590  93.2789250  71.0964820
  73.7803670  93.5419450  70.9216480  75.1680210  93.5500420  70.3164780
  77.2266800  92.3354790  69.0059200  77.9358500  91.9138010  68.5206480
  76.5106740  92.4030020  68.3742550  76.8740960  88.3894120  68.0461850
  77.5969090  88.9303060  68.3643070  77.1465480  88.1157540  67.1703390
  76.5633150  87.6400310  77.9484470  77.2109340  87.0897690  77.5079630
  76.9834990  87.8943460  78.7700280  76.3165150  87.7955980  80.6909790
  75.9679970  88.2519800  81.4567970  75.9852850  86.9013110  80.7732220
  83.8289970  88.9867860  84.2129210  83.7678860  89.5789690  84.9624620
  84.7690350  88.8793820  84.0679470  86.4664530  88.6437920  83.8521500
  87.0804940  88.9617210  83.1902580  87.0114090  88.1586510  84.4717360
  76.9885790  87.3232180  83.9660560  77.5368780  87.1420230  83.2026670
  77.0541100  86.5326290  84.5016870  87.2072570  87.2070060  80.1790790
  86.3332410  87.5405170  79.9763720  87.0983320  86.7343240  81.0042660
  88.1144550  89.4140930  81.5632510  87.7857910  88.5992690  81.1834240
  89.0626850  89.3710740  81.4398200  84.9547390  88.1239900  79.1183700
  84.1719180  88.5985400  79.3980460  84.6610320  87.2194730  79.0096880
  89.5068460  88.8263000  77.1632790  89.9476550  88.7708100  76.3154390
  89.2376050  89.7421010  77.2342970  76.2987800  88.4287380  71.6397420
  77.0567160  88.5416260  71.0661450  75.8364970  89.2656580  71.5940850
  82.8401610  90.5426650  74.6299730  82.0276120  90.1683540  74.2895610
  83.3443250  89.7871730  74.9320920  87.3426590  87.2069100  75.8682800
  87.9455960  87.7789310  76.3431320  86.6019580  87.7708540  75.6456700
  90.4861190  87.6090660  71.1423080  90.6811820  88.5074110  71.4090510
  89.6991060  87.3777740  71.6356030  78.6712950  88.9551430  70.1799390
  79.2005710  88.1681230  70.0507340  79.3041270  89.6342620  70.4134920
  80.8650790  88.6926570  73.2344780  80.2353530  87.9913880  73.4014910
  80.3255930  89.4530700  73.0177940  80.9906350  87.9710550  85.6697270
  80.7090620  88.4744150  84.9058090  81.3726050  87.1732300  85.3039400
  87.5921810  87.3864130  86.2477740  87.4787260  87.7058740  87.1429260
  88.4091550  87.7876640  85.9515020  86.4979960  95.4056600  56.6112480
  86.4174010  94.4911210  56.3404190  86.0844380  95.9023670  55.9052190
  84.6298000  97.1835620  58.4921750  83.8540100  96.7036060  58.7820320
  85.2810930  96.5041270  58.3177910  77.0555780  92.4557320  53.1539900
  76.1672480  92.7973290  53.0519780  77.3396970  92.2557640  52.2620730
  75.0188790  95.0562970  59.0379600  75.5904900  94.2885170  59.0383240
  75.0190330  95.3551730  58.1286210  76.2613660  90.4647330  60.8248530
  76.0816500  89.5673080  61.1051290  75.8593740  91.0119200  61.4995480
  85.1012160  92.6663190  58.7260840  85.4776980  91.7935070  58.6134510
  85.0031670  93.0021890  57.8351280  79.2317170  91.0388820  54.1878280
  79.3383920  91.9392550  54.4947040  78.3209530  90.9906790  53.8972930
  88.8836280  90.1613630  55.6589180  89.7045900  89.6710200  55.7014660
  88.9170360  90.7511290  56.4121020  76.8800330  92.9607830  59.4330870
  77.5610440  93.2246200  60.0518270  76.5648380  92.1208700  59.7668880
  81.0724900  94.0075190  58.5203460  81.5803120  94.5056160  59.1608480
  81.6038140  93.2310390  58.3442820  79.3561000  88.6473750  62.7866880
  79.3579440  89.1646140  61.9812780  78.5265310  88.1703930  62.7636810
  89.1197760  92.1014010  58.4316720  88.4153330  92.3898900  59.0119830
  89.4809920  92.9114120  58.0716280  79.0376330  90.3583710  60.7937330
  79.3793140  91.2025760  60.4991200  78.0992140  90.5067450  60.9102670
  82.7204220  87.8465980  57.1181920  83.0279200  87.2912870  56.4017420
  81.7904920  87.9810440  56.9354910  85.1084980  95.9114810  53.8542040
  84.1814260  95.8452190  54.0830510  85.2609800  96.8494940  53.7397280
  85.0954060  92.1831810  50.8509200  84.1557730  92.3445770  50.9361660
  85.4137320  92.9017490  50.3045190  88.5808830  93.6519650  61.7743100
  88.1680010  94.4773360  62.0283090  87.8484780  93.0664690  61.5819460
  80.7141620  96.4379550  56.6361770  80.3098620  95.7256800  56.1407670
  80.8004740  96.0932790  57.5249810  79.4270240  93.2122760  60.4160810
  79.9784830  93.3218100  59.6414060  79.9413750  93.5860360  61.1316040
  77.4146250  95.3324530  54.1368420  77.2943850  96.0586620  53.5249690
  77.1047140  94.5627440  53.6596330  79.8809910  88.6759600  57.5192090
  79.4378060  89.4569140  57.1876610  80.4394900  88.9989490  58.2263030
  84.1679720  91.5428120  63.1227410  83.7059090  91.7511140  63.9347350
  83.7657830  90.7287470  62.8198080  89.1684230  92.7637070  64.2524070
  88.3177820  92.4642820  64.5733140  89.0086020  93.0079080  63.3407890
  86.2633940  94.2638820  66.3522860  86.5887350  93.4302570  66.0125090
  87.0514270  94.7867340  66.5001190  82.9968730  88.2970300  52.3997920
  82.3722910  88.2930170  53.1251230  82.9098850  87.4301260  52.0033890
  81.9185810  89.2206930  59.3781690  82.2158140  90.1269760  59.2973710
  82.4671370  88.7325710  58.7641260  79.6724130  93.7993170  55.2473340
  79.4465050  93.5830340  56.1519960  78.8916660  94.2321630  54.9019310
  86.9021890  93.8056540  53.8463990  86.3030780  94.5292340  53.6627610
  87.4501500  93.7433320  53.0640440  82.1123340  94.6978750  65.9133610
  82.0166940  93.7573480  65.7634010  82.9555320  94.9193820  65.5181680
  85.5086760  92.4420080  55.8767270  85.9016330  92.7592280  55.0635960
  85.8703610  91.5631960  55.9911790  77.2433880  91.1092420  64.0667390
  76.8497270  91.9567630  64.2740170  76.5552280  90.4718790  64.2576030
  83.8178930  91.1927390  67.1364130  83.1277250  90.9999590  67.7710220
  84.5611230  91.4762030  67.6688430  74.5450930  89.0320880  58.0997470
  74.2563980  89.6023740  58.8122450  75.2896690  88.5525330  58.4628700
  74.7321160  92.9741000  49.3100190  74.6495830  93.9171760  49.4515180
  74.3804220  92.8315910  48.4312540  86.0941900  95.0325830  59.9718050
  85.3623020  95.5412640  60.3208150  85.6966240  94.2155810  59.6706830
  82.5319290  91.7080030  58.3770540  82.5355350  91.2669980  57.5275080
  83.4270410  92.0297360  58.4842360  78.3821670  91.5906520  57.3364750
  78.0421720  92.0681750  58.0931800  77.6198990  91.1371640  56.9765850
  82.5939440  92.7092110  51.3677300  82.7152260  92.6678590  52.3163120
  82.2087950  93.5716260  51.2124030  86.5567810  90.4859510  59.3840990
  86.5740550  90.9368160  60.2282840  86.3083390  89.5865150  59.5974430
  81.6060940  95.0193250  50.7660600  81.0377840  94.5711500  50.1396510
  82.3149940  95.3786030  50.2325750  89.9838560  87.8991690  65.2227370
  90.3084330  87.1681350  65.7485350  90.0195070  87.5805330  64.3208360
  82.8327260  95.7681810  60.1235950  83.1997390  95.2940380  60.8697290
  82.6432320  96.6423380  60.4644290  75.6967750  90.5125500  56.2529420
  75.4114670  90.1481170  57.0908040  75.6346610  89.7805960  55.6392560
  80.6226630  94.8090450  62.4420160  80.3183700  95.6882430  62.6670520
  81.5773090  94.8690240  62.4777600  85.3706340  89.4054760  52.9742790
  84.5570950  88.9067930  52.8988100  85.1768290  90.2453010  52.5579140
  88.0854730  93.7774410  51.2704950  88.9734350  94.0891640  51.0956290
  88.0559820  92.9046660  50.8785530  76.6790360  95.6493190  63.5891520
  76.3205300  96.3147040  64.1764860  76.3844920  94.8176740  63.9604140
  79.8803480  96.1077430  66.4731070  79.5803620  96.2534610  65.5758890
  80.6514720  95.5482720  66.3804460  75.1898410  95.6484450  50.2126120
  76.0593260  95.9309250  50.4962040  74.6988730  96.4620320  50.0974930
  78.2545000  87.3795310  54.8056920  78.1259630  87.3713210  55.7541840
  77.4307020  87.7178400  54.4547930  75.2538930  89.1386430  64.2663620
  74.5397450  89.3383350  64.8716230  75.6733970  88.3626000  64.6378420
  86.7477710  91.6308740  62.0165070  87.1158530  90.8103950  62.3444640
  85.8875910  91.6910630  62.4320720  90.1139740  90.5865680  52.8252630
  89.4852900  90.6911350  52.1110860  89.6191660  90.8062460  53.6146510
  82.0823770  92.8651630  54.2410510  81.3739920  93.3337970  54.6824120
  82.3668250  92.2073640  54.8755700  83.7079700  94.2848330  62.2403040
  84.2064950  94.7594150  62.9054890  83.8502650  93.3611850  62.4473070
  86.1139200  89.5902290  55.6806300  85.9906980  89.6088420  54.7315810
  87.0623760  89.6381230  55.8004700  80.2858790  91.1736710  51.6161220
  81.1349320  91.6106860  51.5501410  79.9190060  91.4856970  52.4433280
  89.2068570  95.7449470  56.5292790  88.2658710  95.7599700  56.7040480
  89.5212640  94.9585430  56.9753090  77.8796970  94.8594140  50.7729640
  77.9600560  93.9121650  50.8847040  78.7716720  95.1901020  50.8790300
  75.4067770  96.6809060  66.0085810  75.9106790  96.1016340  66.5802040
  74.6675190  96.9649290  66.5462180  77.4390850  94.8238650  66.9035880
  77.4796190  94.5252520  67.8121110  78.2936350  95.2246260  66.7443400
  79.3796660  93.4030750  64.8710370  78.8493120  92.9121700  64.2433710
  80.0484730  93.8314950  64.3368300  83.7296880  96.4471810  49.3116490
  84.2502540  95.7320830  48.9457640  84.3765280  97.0857680  49.6117000
  88.7496890  95.2096370  66.6390710  89.3317660  94.4548690  66.5511190
  88.9258660  95.7403810  65.8622190  79.8668960  90.3693120  64.9507660
  79.7725830  89.7513870  64.2258530  79.2866350  91.0959410  64.7237570
  82.6330400  88.9266360  61.9835050  82.1847700  88.9490620  61.1380600
  81.9995600  88.5285380  62.5805350  85.3753850  95.5536870  63.9885330
  85.4950060  94.9578010  64.7280170  86.2347850  95.5906560  63.5686630
  87.7141750  96.1074060  62.5647840  87.1876970  96.6316680  61.9612980
  88.0573090  96.7401450  63.1957570  80.1128140  93.4967430  49.0097550
  79.9117200  92.6334790  49.3710890  79.9420190  93.4100790  48.0719150
  82.1422620  92.0958220  65.2461150  82.7322310  91.7874070  65.9338970
  81.3242860  91.6237970  65.4021050  86.9616050  91.7124030  65.4794170
  86.2731570  91.0505570  65.4144160  87.6822070  91.2662300  65.9242630
  87.5916450  88.3075660  51.5384430  87.8718740  87.4643560  51.8943850
  86.8182180  88.5398770  52.0523180  78.9110940  90.5968050  48.9975430
  79.2136840  90.6035480  48.0894580  79.6505530  90.2465910  49.4943090
  82.1295870  89.5402670  49.9831630  81.7817870  88.8626660  49.4034080
  82.3308640  89.0792180  50.7975020  75.4701510  96.0690320  56.3796000
  74.8150350  95.8001960  55.7355700  76.3079460  95.9594800  55.9297980
  88.4191950  90.8631610  50.6014490  88.8376830  90.6762590  49.7611150
  88.1128010  90.0110660  50.9117420  76.5077440  96.4542890  60.9199340
  76.8750480  96.3670290  61.7995360  75.9388260  95.6909440  60.8206200
  76.0593440  93.3651980  64.8257760  75.1649490  93.3318740  65.1651470
  76.5990990  93.5638770  65.5909010  89.7469370  90.1483700  66.7109510
  90.6239550  90.1567100  67.0943510  89.7590210  89.4114540  66.1001860
  74.6839590  93.2789250  52.3221330  73.7803670  93.5419450  52.1472990
  75.1680210  93.5500420  51.5421290  77.2266800  92.3354790  50.2315710
  77.9358500  91.9138010  49.7462990  76.5106740  92.4030020  49.5999060
  76.8740960  88.3894120  49.2718360  77.5969090  88.9303060  49.5899580
  77.1465480  88.1157540  48.3959900  76.5633150  87.6400310  59.1740980
  77.2109340  87.0897690  58.7336140  76.9834990  87.8943460  59.9956790
  76.3165150  87.7955980  61.9166300  75.9679970  88.2519800  62.6824480
  75.9852850  86.9013110  61.9988730  83.8289970  88.9867860  65.4385720
  83.7678860  89.5789690  66.1881130  84.7690350  88.8793820  65.2935980
  86.4664530  88.6437920  65.0778010  87.0804940  88.9617210  64.4159090
  87.0114090  88.1586510  65.6973870  76.9885790  87.3232180  65.1917070
  77.5368780  87.1420230  64.4283180  77.0541100  86.5326290  65.7273380
  87.2072570  87.2070060  61.4047300  86.3332410  87.5405170  61.2020230
  87.0983320  86.7343240  62.2299170  88.1144550  89.4140930  62.7889020
  87.7857910  88.5992690  62.4090750  89.0626850  89.3710740  62.6654710
  84.9547390  88.1239900  60.3440210  84.1719180  88.5985400  60.6236970
  84.6610320  87.2194730  60.2353390  89.5068460  88.8263000  58.3889300
  89.9476550  88.7708100  57.5410900  89.2376050  89.7421010  58.4599480
  76.2987800  88.4287380  52.8653930  77.0567160  88.5416260  52.2917960
  75.8364970  89.2656580  52.8197360  82.8401610  90.5426650  55.8556240
  82.0276120  90.1683540  55.5152120  83.3443250  89.7871730  56.1577430
  87.3426590  87.2069100  57.0939310  87.9455960  87.7789310  57.5687830
  86.6019580  87.7708540  56.8713210  90.4861190  87.6090660  52.3679590
  90.6811820  88.5074110  52.6347020  89.6991060  87.3777740  52.8612540
  78.6712950  88.9551430  51.4055900  79.2005710  88.1681230  51.2763850
  79.3041270  89.6342620  51.6391430  80.8650790  88.6926570  54.4601290
  80.2353530  87.9913880  54.6271420  80.3255930  89.4530700  54.2434450
  80.9906350  87.9710550  66.8953780  80.7090620  88.4744150  66.1314600
  81.3726050  87.1732300  66.5295910  87.5921810  87.3864130  67.4734250
  87.4787260  87.7058740  68.3685770  88.4091550  87.7876640  67.1771530
  86.4979960  95.4056600  37.8368990  86.4174010  94.4911210  37.5660700
  86.0844380  95.9023670  37.1308700  84.6298000  97.1835620  39.7178260
  83.8540100  96.7036060  40.0076830  85.2810930  96.5041270  39.5434420
  77.0555780  92.4557320  34.3796410  76.1672480  92.7973290  34.2776290
  77.3396970  92.2557640  33.4877240  75.0188790  95.0562970  40.2636110
  75.5904900  94.2885170  40.2639750  75.0190330  95.3551730  39.3542720
  76.2613660  90.4647330  42.0505040  76.0816500  89.5673080  42.3307800
  75.8593740  91.0119200  42.7251990  85.1012160  92.6663190  39.9517350
  85.4776980  91.7935070  39.8391020  85.0031670  93.0021890  39.0607790
  79.2317170  91.0388820  35.4134790  79.3383920  91.9392550  35.7203550
  78.3209530  90.9906790  35.1229440  88.8836280  90.1613630  36.8845690
  89.7045900  89.6710200  36.9271170  88.9170360  90.7511290  37.6377530
  76.8800330  92.9607830  40.6587380  77.5610440  93.2246200  41.2774780
  76.5648380  92.1208700  40.9925390  81.0724900  94.0075190  39.7459970
  81.5803120  94.5056160  40.3864990  81.6038140  93.2310390  39.5699330
  79.3561000  88.6473750  44.0123390  79.3579440  89.1646140  43.2069290
  78.5265310  88.1703930  43.9893320  89.1197760  92.1014010  39.6573230
  88.4153330  92.3898900  40.2376340  89.4809920  92.9114120  39.2972790
  79.0376330  90.3583710  42.0193840  79.3793140  91.2025760  41.7247710
  78.0992140  90.5067450  42.1359180  82.7204220  87.8465980  38.3438430
  83.0279200  87.2912870  37.6273930  81.7904920  87.9810440  38.1611420
  85.1084980  95.9114810  35.0798550  84.1814260  95.8452190  35.3087020
  85.2609800  96.8494940  34.9653790  85.0954060  92.1831810  32.0765710
  84.1557730  92.3445770  32.1618170  85.4137320  92.9017490  31.5301700
  88.5808830  93.6519650  42.9999610  88.1680010  94.4773360  43.2539600
  87.8484780  93.0664690  42.8075970  80.7141620  96.4379550  37.8618280
  80.3098620  95.7256800  37.3664180  80.8004740  96.0932790  38.7506320
  79.4270240  93.2122760  41.6417320  79.9784830  93.3218100  40.8670570
  79.9413750  93.5860360  42.3572550  77.4146250  95.3324530  35.3624930
  77.2943850  96.0586620  34.7506200  77.1047140  94.5627440  34.8852840
  79.8809910  88.6759600  38.7448600  79.4378060  89.4569140  38.4133120
  80.4394900  88.9989490  39.4519540  84.1679720  91.5428120  44.3483920
  83.7059090  91.7511140  45.1603860  83.7657830  90.7287470  44.0454590
  89.1684230  92.7637070  45.4780580  88.3177820  92.4642820  45.7989650
  89.0086020  93.0079080  44.5664400  86.2633940  94.2638820  47.5779370
  86.5887350  93.4302570  47.2381600  87.0514270  94.7867340  47.7257700
  82.9968730  88.2970300  33.6254430  82.3722910  88.2930170  34.3507740
  82.9098850  87.4301260  33.2290400  81.9185810  89.2206930  40.6038200
  82.2158140  90.1269760  40.5230220  82.4671370  88.7325710  39.9897770
  79.6724130  93.7993170  36.4729850  79.4465050  93.5830340  37.3776470
  78.8916660  94.2321630  36.1275820  86.9021890  93.8056540  35.0720500
  86.3030780  94.5292340  34.8884120  87.4501500  93.7433320  34.2896950
  82.1123340  94.6978750  47.1390120  82.0166940  93.7573480  46.9890520
  82.9555320  94.9193820  46.7438190  85.5086760  92.4420080  37.1023780
  85.9016330  92.7592280  36.2892470  85.8703610  91.5631960  37.2168300
  77.2433880  91.1092420  45.2923900  76.8497270  91.9567630  45.4996680
  76.5552280  90.4718790  45.4832540  83.8178930  91.1927390  48.3620640
  83.1277250  90.9999590  48.9966730  84.5611230  91.4762030  48.8944940
  74.5450930  89.0320880  39.3253980  74.2563980  89.6023740  40.0378960
  75.2896690  88.5525330  39.6885210  74.7321160  92.9741000  30.5356700
  74.6495830  93.9171760  30.6771690  74.3804220  92.8315910  29.6569050
  86.0941900  95.0325830  41.1974560  85.3623020  95.5412640  41.5464660
  85.6966240  94.2155810  40.8963340  82.5319290  91.7080030  39.6027050
  82.5355350  91.2669980  38.7531590  83.4270410  92.0297360  39.7098870
  78.3821670  91.5906520  38.5621260  78.0421720  92.0681750  39.3188310
  77.6198990  91.1371640  38.2022360  82.5939440  92.7092110  32.5933810
  82.7152260  92.6678590  33.5419630  82.2087950  93.5716260  32.4380540
  86.5567810  90.4859510  40.6097500  86.5740550  90.9368160  41.4539350
  86.3083390  89.5865150  40.8230940  81.6060940  95.0193250  31.9917110
  81.0377840  94.5711500  31.3653020  82.3149940  95.3786030  31.4582260
  89.9838560  87.8991690  46.4483880  90.3084330  87.1681350  46.9741860
  90.0195070  87.5805330  45.5464870  82.8327260  95.7681810  41.3492460
  83.1997390  95.2940380  42.0953800  82.6432320  96.6423380  41.6900800
  75.6967750  90.5125500  37.4785930  75.4114670  90.1481170  38.3164550
  75.6346610  89.7805960  36.8649070  80.6226630  94.8090450  43.6676670
  80.3183700  95.6882430  43.8927030  81.5773090  94.8690240  43.7034110
  85.3706340  89.4054760  34.1999300  84.5570950  88.9067930  34.1244610
  85.1768290  90.2453010  33.7835650  88.0854730  93.7774410  32.4961460
  88.9734350  94.0891640  32.3212800  88.0559820  92.9046660  32.1042040
  76.6790360  95.6493190  44.8148030  76.3205300  96.3147040  45.4021370
  76.3844920  94.8176740  45.1860650  79.8803480  96.1077430  47.6987580
  79.5803620  96.2534610  46.8015400  80.6514720  95.5482720  47.6060970
  75.1898410  95.6484450  31.4382630  76.0593260  95.9309250  31.7218550
  74.6988730  96.4620320  31.3231440  78.2545000  87.3795310  36.0313430
  78.1259630  87.3713210  36.9798350  77.4307020  87.7178400  35.6804440
  75.2538930  89.1386430  45.4920130  74.5397450  89.3383350  46.0972740
  75.6733970  88.3626000  45.8634930  86.7477710  91.6308740  43.2421580
  87.1158530  90.8103950  43.5701150  85.8875910  91.6910630  43.6577230
  90.1139740  90.5865680  34.0509140  89.4852900  90.6911350  33.3367370
  89.6191660  90.8062460  34.8403020  82.0823770  92.8651630  35.4667020
  81.3739920  93.3337970  35.9080630  82.3668250  92.2073640  36.1012210
  83.7079700  94.2848330  43.4659550  84.2064950  94.7594150  44.1311400
  83.8502650  93.3611850  43.6729580  86.1139200  89.5902290  36.9062810
  85.9906980  89.6088420  35.9572320  87.0623760  89.6381230  37.0261210
  80.2858790  91.1736710  32.8417730  81.1349320  91.6106860  32.7757920
  79.9190060  91.4856970  33.6689790  89.2068570  95.7449470  37.7549300
  88.2658710  95.7599700  37.9296990  89.5212640  94.9585430  38.2009600
  77.8796970  94.8594140  31.9986150  77.9600560  93.9121650  32.1103550
  78.7716720  95.1901020  32.1046810  75.4067770  96.6809060  47.2342320
  75.9106790  96.1016340  47.8058550  74.6675190  96.9649290  47.7718690
  77.4390850  94.8238650  48.1292390  77.4796190  94.5252520  49.0377620
  78.2936350  95.2246260  47.9699910  79.3796660  93.4030750  46.0966880
  78.8493120  92.9121700  45.4690220  80.0484730  93.8314950  45.5624810
  83.7296880  96.4471810  30.5373000  84.2502540  95.7320830  30.1714150
  84.3765280  97.0857680  30.8373510  88.7496890  95.2096370  47.8647220
  89.3317660  94.4548690  47.7767700  88.9258660  95.7403810  47.0878700
  79.8668960  90.3693120  46.1764170  79.7725830  89.7513870  45.4515040
  79.2866350  91.0959410  45.9494080  82.6330400  88.9266360  43.2091560
  82.1847700  88.9490620  42.3637110  81.9995600  88.5285380  43.8061860
  85.3753850  95.5536870  45.2141840  85.4950060  94.9578010  45.9536680
  86.2347850  95.5906560  44.7943140  87.7141750  96.1074060  43.7904350
  87.1876970  96.6316680  43.1869490  88.0573090  96.7401450  44.4214080
  80.1128140  93.4967430  30.2354060  79.9117200  92.6334790  30.5967400
  79.9420190  93.4100790  29.2975660  82.1422620  92.0958220  46.4717660
  82.7322310  91.7874070  47.1595480  81.3242860  91.6237970  46.6277560
  86.9616050  91.7124030  46.7050680  86.2731570  91.0505570  46.6400670
  87.6822070  91.2662300  47.1499140  87.5916450  88.3075660  32.7640940
  87.8718740  87.4643560  33.1200360  86.8182180  88.5398770  33.2779690
  78.9110940  90.5968050  30.2231940  79.2136840  90.6035480  29.3151090
  79.6505530  90.2465910  30.7199600  82.1295870  89.5402670  31.2088140
  81.7817870  88.8626660  30.6290590  82.3308640  89.0792180  32.0231530
  75.4701510  96.0690320  37.6052510  74.8150350  95.8001960  36.9612210
  76.3079460  95.9594800  37.1554490  88.4191950  90.8631610  31.8271000
  88.8376830  90.6762590  30.9867660  88.1128010  90.0110660  32.1373930
  76.5077440  96.4542890  42.1455850  76.8750480  96.3670290  43.0251870
  75.9388260  95.6909440  42.0462710  76.0593440  93.3651980  46.0514270
  75.1649490  93.3318740  46.3907980  76.5990990  93.5638770  46.8165520
  89.7469370  90.1483700  47.9366020  90.6239550  90.1567100  48.3200020
  89.7590210  89.4114540  47.3258370  74.6839590  93.2789250  33.5477840
  73.7803670  93.5419450  33.3729500  75.1680210  93.5500420  32.7677800
  77.2266800  92.3354790  31.4572220  77.9358500  91.9138010  30.9719500
  76.5106740  92.4030020  30.8255570  76.8740960  88.3894120  30.4974870
  77.5969090  88.9303060  30.8156090  77.1465480  88.1157540  29.6216410
  76.5633150  87.6400310  40.3997490  77.2109340  87.0897690  39.9592650
  76.9834990  87.8943460  41.2213300  76.3165150  87.7955980  43.1422810
  75.9679970  88.2519800  43.9080990  75.9852850  86.9013110  43.2245240
  83.8289970  88.9867860  46.6642230  83.7678860  89.5789690  47.4137640
  84.7690350  88.8793820  46.5192490  86.4664530  88.6437920  46.3034520
  87.0804940  88.9617210  45.6415600  87.0114090  88.1586510  46.9230380
  76.9885790  87.3232180  46.4173580  77.5368780  87.1420230  45.6539690
  77.0541100  86.5326290  46.9529890  87.2072570  87.2070060  42.6303810
  86.3332410  87.5405170  42.4276740  87.0983320  86.7343240  43.4555680
  88.1144550  89.4140930  44.0145530  87.7857910  88.5992690  43.6347260
  89.0626850  89.3710740  43.8911220  84.9547390  88.1239900  41.5696720
  84.1719180  88.5985400  41.8493480  84.6610320  87.2194730  41.4609900
  89.5068460  88.8263000  39.6145810  89.9476550  88.7708100  38.7667410
  89.2376050  89.7421010  39.6855990  76.2987800  88.4287380  34.0910440
  77.0567160  88.5416260  33.5174470  75.8364970  89.2656580  34.0453870
  82.8401610  90.5426650  37.0812750  82.0276120  90.1683540  36.7408630
  83.3443250  89.7871730  37.3833940  87.3426590  87.2069100  38.3195820
  87.9455960  87.7789310  38.7944340  86.6019580  87.7708540  38.0969720
  90.4861190  87.6090660  33.5936100  90.6811820  88.5074110  33.8603530
  89.6991060  87.3777740  34.0869050  78.6712950  88.9551430  32.6312410
  79.2005710  88.1681230  32.5020360  79.3041270  89.6342620  32.8647940
  80.8650790  88.6926570  35.6857800  80.2353530  87.9913880  35.8527930
  80.3255930  89.4530700  35.4690960  80.9906350  87.9710550  48.1210290
  80.7090620  88.4744150  47.3571110  81.3726050  87.1732300  47.7552420
  87.5921810  87.3864130  48.6990760  87.4787260  87.7058740  49.5942280
  88.4091550  87.7876640  48.4028040  86.4979960  95.4056600  19.0625500
  86.4174010  94.4911210  18.7917210  86.0844380  95.9023670  18.3565210
  84.6298000  97.1835620  20.9434770  83.8540100  96.7036060  21.2333340
  85.2810930  96.5041270  20.7690930  77.0555780  92.4557320  15.6052920
  76.1672480  92.7973290  15.5032800  77.3396970  92.2557640  14.7133750
  75.0188790  95.0562970  21.4892620  75.5904900  94.2885170  21.4896260
  75.0190330  95.3551730  20.5799230  76.2613660  90.4647330  23.2761550
  76.0816500  89.5673080  23.5564310  75.8593740  91.0119200  23.9508500
  85.1012160  92.6663190  21.1773860  85.4776980  91.7935070  21.0647530
  85.0031670  93.0021890  20.2864300  79.2317170  91.0388820  16.6391300
  79.3383920  91.9392550  16.9460060  78.3209530  90.9906790  16.3485950
  88.8836280  90.1613630  18.1102200  89.7045900  89.6710200  18.1527680
  88.9170360  90.7511290  18.8634040  76.8800330  92.9607830  21.8843890
  77.5610440  93.2246200  22.5031290  76.5648380  92.1208700  22.2181900
  81.0724900  94.0075190  20.9716480  81.5803120  94.5056160  21.6121500
  81.6038140  93.2310390  20.7955840  79.3561000  88.6473750  25.2379900
  79.3579440  89.1646140  24.4325800  78.5265310  88.1703930  25.2149830
  89.1197760  92.1014010  20.8829740  88.4153330  92.3898900  21.4632850
  89.4809920  92.9114120  20.5229300  79.0376330  90.3583710  23.2450350
  79.3793140  91.2025760  22.9504220  78.0992140  90.5067450  23.3615690
  82.7204220  87.8465980  19.5694940  83.0279200  87.2912870  18.8530440
  81.7904920  87.9810440  19.3867930  85.1084980  95.9114810  16.3055060
  84.1814260  95.8452190  16.5343530  85.2609800  96.8494940  16.1910300
  85.0954060  92.1831810  13.3022220  84.1557730  92.3445770  13.3874680
  85.4137320  92.9017490  12.7558210  88.5808830  93.6519650  24.2256120
  88.1680010  94.4773360  24.4796110  87.8484780  93.0664690  24.0332480
  80.7141620  96.4379550  19.0874790  80.3098620  95.7256800  18.5920690
  80.8004740  96.0932790  19.9762830  79.4270240  93.2122760  22.8673830
  79.9784830  93.3218100  22.0927080  79.9413750  93.5860360  23.5829060
  77.4146250  95.3324530  16.5881440  77.2943850  96.0586620  15.9762710
  77.1047140  94.5627440  16.1109350  79.8809910  88.6759600  19.9705110
  79.4378060  89.4569140  19.6389630  80.4394900  88.9989490  20.6776050
  84.1679720  91.5428120  25.5740430  83.7059090  91.7511140  26.3860370
  83.7657830  90.7287470  25.2711100  89.1684230  92.7637070  26.7037090
  88.3177820  92.4642820  27.0246160  89.0086020  93.0079080  25.7920910
  86.2633940  94.2638820  28.8035880  86.5887350  93.4302570  28.4638110
  87.0514270  94.7867340  28.9514210  82.9968730  88.2970300  14.8510940
  82.3722910  88.2930170  15.5764250  82.9098850  87.4301260  14.4546910
  81.9185810  89.2206930  21.8294710  82.2158140  90.1269760  21.7486730
  82.4671370  88.7325710  21.2154280  79.6724130  93.7993170  17.6986360
  79.4465050  93.5830340  18.6032980  78.8916660  94.2321630  17.3532330
  86.9021890  93.8056540  16.2977010  86.3030780  94.5292340  16.1140630
  87.4501500  93.7433320  15.5153460  82.1123340  94.6978750  28.3646630
  82.0166940  93.7573480  28.2147030  82.9555320  94.9193820  27.9694700
  85.5086760  92.4420080  18.3280290  85.9016330  92.7592280  17.5148980
  85.8703610  91.5631960  18.4424810  77.2433880  91.1092420  26.5180410
  76.8497270  91.9567630  26.7253190  76.5552280  90.4718790  26.7089050
  83.8178930  91.1927390  29.5877150  83.1277250  90.9999590  30.2223240
  84.5611230  91.4762030  30.1201450  74.5450930  89.0320880  20.5510490
  74.2563980  89.6023740  21.2635470  75.2896690  88.5525330  20.9141720
  74.7321160  92.9741000  11.7613210  74.6495830  93.9171760  11.9028200
  74.3804220  92.8315910  10.8825560  86.0941900  95.0325830  22.4231070
  85.3623020  95.5412640  22.7721170  85.6966240  94.2155810  22.1219850
  82.5319290  91.7080030  20.8283560  82.5355350  91.2669980  19.9788100
  83.4270410  92.0297360  20.9355380  78.3821670  91.5906520  19.7877770
  78.0421720  92.0681750  20.5444820  77.6198990  91.1371640  19.4278870
  82.5939440  92.7092110  13.8190320  82.7152260  92.6678590  14.7676140
  82.2087950  93.5716260  13.6637050  86.5567810  90.4859510  21.8354010
  86.5740550  90.9368160  22.6795860  86.3083390  89.5865150  22.0487450
  81.6060940  95.0193250  13.2173620  81.0377840  94.5711500  12.5909530
  82.3149940  95.3786030  12.6838770  89.9838560  87.8991690  27.6740390
  90.3084330  87.1681350  28.1998370  90.0195070  87.5805330  26.7721380
  82.8327260  95.7681810  22.5748970  83.1997390  95.2940380  23.3210310
  82.6432320  96.6423380  22.9157310  75.6967750  90.5125500  18.7042440
  75.4114670  90.1481170  19.5421060  75.6346610  89.7805960  18.0905580
  80.6226630  94.8090450  24.8933180  80.3183700  95.6882430  25.1183540
  81.5773090  94.8690240  24.9290620  85.3706340  89.4054760  15.4255810
  84.5570950  88.9067930  15.3501120  85.1768290  90.2453010  15.0092160
  88.0854730  93.7774410  13.7217970  88.9734350  94.0891640  13.5469310
  88.0559820  92.9046660  13.3298550  76.6790360  95.6493190  26.0404540
  76.3205300  96.3147040  26.6277880  76.3844920  94.8176740  26.4117160
  79.8803480  96.1077430  28.9244090  79.5803620  96.2534610  28.0271910
  80.6514720  95.5482720  28.8317480  75.1898410  95.6484450  12.6639140
  76.0593260  95.9309250  12.9475060  74.6988730  96.4620320  12.5487950
  78.2545000  87.3795310  17.2569940  78.1259630  87.3713210  18.2054860
  77.4307020  87.7178400  16.9060950  75.2538930  89.1386430  26.7176640
  74.5397450  89.3383350  27.3229250  75.6733970  88.3626000  27.0891440
  86.7477710  91.6308740  24.4678090  87.1158530  90.8103950  24.7957660
  85.8875910  91.6910630  24.8833740  90.1139740  90.5865680  15.2765650
  89.4852900  90.6911350  14.5623880  89.6191660  90.8062460  16.0659530
  82.0823770  92.8651630  16.6923530  81.3739920  93.3337970  17.1337140
  82.3668250  92.2073640  17.3268720  83.7079700  94.2848330  24.6916060
  84.2064950  94.7594150  25.3567910  83.8502650  93.3611850  24.8986090
  86.1139200  89.5902290  18.1319320  85.9906980  89.6088420  17.1828830
  87.0623760  89.6381230  18.2517720  80.2858790  91.1736710  14.0674240
  81.1349320  91.6106860  14.0014430  79.9190060  91.4856970  14.8946300
  89.2068570  95.7449470  18.9805810  88.2658710  95.7599700  19.1553500
  89.5212640  94.9585430  19.4266110  77.8796970  94.8594140  13.2242660
  77.9600560  93.9121650  13.3360060  78.7716720  95.1901020  13.3303320
  75.4067770  96.6809060  28.4598830  75.9106790  96.1016340  29.0315060
  74.6675190  96.9649290  28.9975200  77.4390850  94.8238650  29.3548900
  77.4796190  94.5252520  30.2634130  78.2936350  95.2246260  29.1956420
  79.3796660  93.4030750  27.3223390  78.8493120  92.9121700  26.6946730
  80.0484730  93.8314950  26.7881320  83.7296880  96.4471810  11.7629510
  84.2502540  95.7320830  11.3970660  84.3765280  97.0857680  12.0630020
  88.7496890  95.2096370  29.0903730  89.3317660  94.4548690  29.0024210
  88.9258660  95.7403810  28.3135210  79.8668960  90.3693120  27.4020680
  79.7725830  89.7513870  26.6771550  79.2866350  91.0959410  27.1750590
  82.6330400  88.9266360  24.4348070  82.1847700  88.9490620  23.5893620
  81.9995600  88.5285380  25.0318370  85.3753850  95.5536870  26.4398350
  85.4950060  94.9578010  27.1793190  86.2347850  95.5906560  26.0199650
  87.7141750  96.1074060  25.0160860  87.1876970  96.6316680  24.4126000
  88.0573090  96.7401450  25.6470590  80.1128140  93.4967430  11.4610570
  79.9117200  92.6334790  11.8223910  79.9420190  93.4100790  10.5232170
  82.1422620  92.0958220  27.6974170  82.7322310  91.7874070  28.3851990
  81.3242860  91.6237970  27.8534070  86.9616050  91.7124030  27.9307190
  86.2731570  91.0505570  27.8657180  87.6822070  91.2662300  28.3755650
  87.5916450  88.3075660  13.9897450  87.8718740  87.4643560  14.3456870
  86.8182180  88.5398770  14.5036200  78.9110940  90.5968050  11.4488450
  79.2136840  90.6035480  10.5407600  79.6505530  90.2465910  11.9456110
  82.1295870  89.5402670  12.4344650  81.7817870  88.8626660  11.8547100
  82.3308640  89.0792180  13.2488040  75.4701510  96.0690320  18.8309020
  74.8150350  95.8001960  18.1868720  76.3079460  95.9594800  18.3811000
  88.4191950  90.8631610  13.0527510  88.8376830  90.6762590  12.2124170
  88.1128010  90.0110660  13.3630440  76.5077440  96.4542890  23.3712360
  76.8750480  96.3670290  24.2508380  75.9388260  95.6909440  23.2719220
  76.0593440  93.3651980  27.2770780  75.1649490  93.3318740  27.6164490
  76.5990990  93.5638770  28.0422030  89.7469370  90.1483700  29.1622530
  90.6239550  90.1567100  29.5456530  89.7590210  89.4114540  28.5514880
  74.6839590  93.2789250  14.7734350  73.7803670  93.5419450  14.5986010
  75.1680210  93.5500420  13.9934310  77.2266800  92.3354790  12.6828730
  77.9358500  91.9138010  12.1976010  76.5106740  92.4030020  12.0512080
  76.8740960  88.3894120  11.7231380  77.5969090  88.9303060  12.0412600
  77.1465480  88.1157540  10.8472920  76.5633150  87.6400310  21.6254000
  77.2109340  87.0897690  21.1849160  76.9834990  87.8943460  22.4469810
  76.3165150  87.7955980  24.3679320  75.9679970  88.2519800  25.1337500
  75.9852850  86.9013110  24.4501750  83.8289970  88.9867860  27.8898740
  83.7678860  89.5789690  28.6394150  84.7690350  88.8793820  27.7449000
  86.4664530  88.6437920  27.5291030  87.0804940  88.9617210  26.8672110
  87.0114090  88.1586510  28.1486890  76.9885790  87.3232180  27.6430090
  77.5368780  87.1420230  26.8796200  77.0541100  86.5326290  28.1786400
  87.2072570  87.2070060  23.8560320  86.3332410  87.5405170  23.6533250
  87.0983320  86.7343240  24.6812190  88.1144550  89.4140930  25.2402040
  87.7857910  88.5992690  24.8603770  89.0626850  89.3710740  25.1167730
  84.9547390  88.1239900  22.7953230  84.1719180  88.5985400  23.0749990
  84.6610320  87.2194730  22.6866410  89.5068460  88.8263000  20.8402320
  89.9476550  88.7708100  19.9923920  89.2376050  89.7421010  20.9112500
  76.2987800  88.4287380  15.3166950  77.0567160  88.5416260  14.7430980
  75.8364970  89.2656580  15.2710380  82.8401610  90.5426650  18.3069260
  82.0276120  90.1683540  17.9665140  83.3443250  89.7871730  18.6090450
  87.3426590  87.2069100  19.5452330  87.9455960  87.7789310  20.0200850
  86.6019580  87.7708540  19.3226230  90.4861190  87.6090660  14.8192610
  90.6811820  88.5074110  15.0860040  89.6991060  87.3777740  15.3125560
  78.6712950  88.9551430  13.8568920  79.2005710  88.1681230  13.7276870
  79.3041270  89.6342620  14.0904450  80.8650790  88.6926570  16.9114310
  80.2353530  87.9913880  17.0784440  80.3255930  89.4530700  16.6947470
  80.9906350  87.9710550  29.3466800  80.7090620  88.4744150  28.5827620
  81.3726050  87.1732300  28.9808930  87.5921810  87.3864130  29.9247270
  87.4787260  87.7058740  30.8198790  88.4091550  87.7876640  29.6284550
  84.6298000  97.1835620   2.1691280  83.8540100  96.7036060   2.4589850
  85.2810930  96.5041270   1.9947440  75.0188790  95.0562970   2.7149130
  75.5904900  94.2885170   2.7152770  75.0190330  95.3551730   1.8055740
  76.2613660  90.4647330   4.5018060  76.0816500  89.5673080   4.7820820
  75.8593740  91.0119200   5.1765010  76.8800330  92.9607830   3.1100400
  77.5610440  93.2246200   3.7287800  76.5648380  92.1208700   3.4438410
  81.0724900  94.0075190   2.1972990  81.5803120  94.5056160   2.8378010
  81.6038140  93.2310390   2.0212350  79.3561000  88.6473750   6.4636410
  79.3579440  89.1646140   5.6582310  78.5265310  88.1703930   6.4406340
  89.1197760  92.1014010   2.1086250  88.4153330  92.3898900   2.6889360
  89.4809920  92.9114120   1.7485810  79.0376330  90.3583710   4.4706860
  79.3793140  91.2025760   4.1760730  78.0992140  90.5067450   4.5872200
  88.5808830  93.6519650   5.4512630  88.1680010  94.4773360   5.7052620
  87.8484780  93.0664690   5.2588990  79.4270240  93.2122760   4.0930340
  79.9784830  93.3218100   3.3183590  79.9413750  93.5860360   4.8085570
  84.1679720  91.5428120   6.7996940  83.7059090  91.7511140   7.6116880
  83.7657830  90.7287470   6.4967610  89.1684230  92.7637070   7.9293600
  88.3177820  92.4642820   8.2502670  89.0086020  93.0079080   7.0177420
  86.2633940  94.2638820  10.0292390  86.5887350  93.4302570   9.6894620
  87.0514270  94.7867340  10.1770720  81.9185810  89.2206930   3.0551220
  82.2158140  90.1269760   2.9743240  82.4671370  88.7325710   2.4410790
  82.1123340  94.6978750   9.5903140  82.0166940  93.7573480   9.4403540
  82.9555320  94.9193820   9.1951210  77.2433880  91.1092420   7.7436920
  76.8497270  91.9567630   7.9509700  76.5552280  90.4718790   7.9345560
  83.8178930  91.1927390  10.8133660  83.1277250  90.9999590  11.4479750
  84.5611230  91.4762030  11.3457960  74.5450930  89.0320880   1.7767000
  74.2563980  89.6023740   2.4891980  75.2896690  88.5525330   2.1398230
  86.0941900  95.0325830   3.6487580  85.3623020  95.5412640   3.9977680
  85.6966240  94.2155810   3.3476360  86.5567810  90.4859510   3.0610520
  86.5740550  90.9368160   3.9052370  86.3083390  89.5865150   3.2743960
  89.9838560  87.8991690   8.8996900  90.3084330  87.1681350   9.4254880
  90.0195070  87.5805330   7.9977890  82.8327260  95.7681810   3.8005480
  83.1997390  95.2940380   4.5466820  82.6432320  96.6423380   4.1413820
  80.6226630  94.8090450   6.1189690  80.3183700  95.6882430   6.3440050
  81.5773090  94.8690240   6.1547130  76.6790360  95.6493190   7.2661050
  76.3205300  96.3147040   7.8534390  76.3844920  94.8176740   7.6373670
  79.8803480  96.1077430  10.1500600  79.5803620  96.2534610   9.2528420
  80.6514720  95.5482720  10.0573990  75.2538930  89.1386430   7.9433150
  74.5397450  89.3383350   8.5485760  75.6733970  88.3626000   8.3147950
  86.7477710  91.6308740   5.6934600  87.1158530  90.8103950   6.0214170
  85.8875910  91.6910630   6.1090250  83.7079700  94.2848330   5.9172570
  84.2064950  94.7594150   6.5824420  83.8502650  93.3611850   6.1242600
  75.4067770  96.6809060   9.6855340  75.9106790  96.1016340  10.2571570
  74.6675190  96.9649290  10.2231710  77.4390850  94.8238650  10.5805410
  77.4796190  94.5252520  11.4890640  78.2936350  95.2246260  10.4212930
  79.3796660  93.4030750   8.5479900  78.8493120  92.9121700   7.9203240
  80.0484730  93.8314950   8.0137830  88.7496890  95.2096370  10.3160240
  89.3317660  94.4548690  10.2280720  88.9258660  95.7403810   9.5391720
  79.8668960  90.3693120   8.6277190  79.7725830  89.7513870   7.9028060
  79.2866350  91.0959410   8.4007100  82.6330400  88.9266360   5.6604580
  82.1847700  88.9490620   4.8150130  81.9995600  88.5285380   6.2574880
  85.3753850  95.5536870   7.6654860  85.4950060  94.9578010   8.4049700
  86.2347850  95.5906560   7.2456160  87.7141750  96.1074060   6.2417370
  87.1876970  96.6316680   5.6382510  88.0573090  96.7401450   6.8727100
  82.1422620  92.0958220   8.9230680  82.7322310  91.7874070   9.6108500
  81.3242860  91.6237970   9.0790580  86.9616050  91.7124030   9.1563700
  86.2731570  91.0505570   9.0913690  87.6822070  91.2662300   9.6012160
  76.5077440  96.4542890   4.5968870  76.8750480  96.3670290   5.4764890
  75.9388260  95.6909440   4.4975730  76.0593440  93.3651980   8.5027290
  75.1649490  93.3318740   8.8421000  76.5990990  93.5638770   9.2678540
  89.7469370  90.1483700  10.3879040  90.6239550  90.1567100  10.7713040
  89.7590210  89.4114540   9.7771390  76.5633150  87.6400310   2.8510510
  77.2109340  87.0897690   2.4105670  76.9834990  87.8943460   3.6726320
  76.3165150  87.7955980   5.5935830  75.9679970  88.2519800   6.3594010
  75.9852850  86.9013110   5.6758260  83.8289970  88.9867860   9.1155250
  83.7678860  89.5789690   9.8650660  84.7690350  88.8793820   8.9705510
  86.4664530  88.6437920   8.7547540  87.0804940  88.9617210   8.0928620
  87.0114090  88.1586510   9.3743400  76.9885790  87.3232180   8.8686600
  77.5368780  87.1420230   8.1052710  77.0541100  86.5326290   9.4042910
  87.2072570  87.2070060   5.0816830  86.3332410  87.5405170   4.8789760
  87.0983320  86.7343240   5.9068700  88.1144550  89.4140930   6.4658550
  87.7857910  88.5992690   6.0860280  89.0626850  89.3710740   6.3424240
  84.9547390  88.1239900   4.0209740  84.1719180  88.5985400   4.3006500
  84.6610320  87.2194730   3.9122920  80.9906350  87.9710550  10.5723310
  80.7090620  88.4744150   9.8084130  81.3726050  87.1732300  10.2065440
  87.5921810  87.3864130  11.1503780  87.4787260  87.7058740  12.0455300
  88.4091550  87.7876640  10.8541060  86.4979960  76.6313110  94.1599460
  86.4174010  75.7167720  93.8891170  86.0844380  77.1280180  93.4539170
  88.6505430  82.8152320  94.8207860  88.1886960  82.0439560  95.1495030
  89.4630980  82.8418390  95.3260310  77.0555780  73.6813830  90.7026880
  76.1672480  74.0229800  90.6006760  77.3396970  73.4814150  89.8107710
  84.8768740  85.1010330  94.4411850  84.2580180  85.5567830  93.8706290
  85.7320520  85.2561790  94.0401550  79.2317170  72.2645330  91.7365260
  79.3383920  73.1649060  92.0434020  78.3209530  72.2163300  91.4459910
  88.8836280  71.3870140  93.2076160  89.7045900  70.8966710  93.2501640
  88.9170360  71.9767800  93.9608000  85.7432090  79.9849570  91.8343760
  85.1249360  80.4499020  91.2706480  86.2555340  80.6777050  92.2513270
  75.1115290  80.6706100  89.2083390  74.7343270  81.1593200  88.4768290
  75.3688360  81.3431380  89.8389920  82.7204220  69.0722490  94.6668900
  83.0279200  68.5169380  93.9504400  81.7904920  69.2066950  94.4841890
  89.5664700  81.5106000  92.0466530  89.4561030  80.5680330  92.1715950
  89.5632950  81.8721640  92.9329290  85.1084980  77.1371320  91.4029020
  84.1814260  77.0708700  91.6317490  85.2609800  78.0751450  91.2884260
  85.0954060  73.4088320  88.3996180  84.1557730  73.5702280  88.4848640
  85.4137320  74.1274000  87.8532170  89.1382270  78.6991620  91.9064270
  88.5194690  78.3611170  91.2590570  89.1206720  78.0551380  92.6143460
  80.7141620  77.6636060  94.1848750  80.3098620  76.9513310  93.6894650
  80.8004740  77.3189300  95.0736790  87.3146970  77.9378430  88.9137020
  87.7540250  77.1000860  88.7674840  88.0275390  78.5707830  89.0001160
  85.4242350  82.8774500  92.8818260  85.8638260  83.6198830  92.4673650
  85.3629240  83.1201070  93.8057220  77.4146250  76.5581040  91.6855400
  77.2943850  77.2843130  91.0736670  77.1047140  75.7883950  91.2083310
  76.2979250  81.4296370  93.9030220  75.8907330  81.5710960  93.0483820
  77.1892260  81.1456530  93.7001430  88.0912530  85.8643620  90.2381270
  87.9313670  85.5746560  91.1363100  87.9259240  85.0883750  89.7026500
  80.5700910  85.6442150  92.0152890  80.3943390  84.7277690  91.8020690
  79.7156650  86.0029440  92.2550690  87.7938660  83.3731180  88.7979270
  87.1003820  83.3708470  88.1381550  88.5361520  82.9490500  88.3673440
  87.3588590  84.9993890  92.8727760  87.8145540  84.2183270  93.1866380
  87.6981110  85.7100710  93.4168940  79.8809910  69.9016110  95.0679070
  79.4378060  70.6825650  94.7363590  80.4394900  70.2246000  95.7750010
  82.9968730  69.5226810  89.9484900  82.3722910  69.5186680  90.6738210
  82.9098850  68.6557770  89.5520870  79.6724130  75.0249680  92.7960320
  79.4465050  74.8086850  93.7006940  78.8916660  75.4578140  92.4506290
  86.9021890  75.0313050  91.3950970  86.3030780  75.7548850  91.2114590
  87.4501500  74.9689830  90.6127420  85.5086760  73.6676590  93.4254250
  85.9016330  73.9848790  92.6122940  85.8703610  72.7888470  93.5398770
  74.7321160  74.1997510  86.8587170  74.6495830  75.1428270  87.0002160
  74.3804220  74.0572420  85.9799520  82.5319290  72.9336540  95.9257520
  82.5355350  72.4926490  95.0762060  83.4270410  73.2553870  96.0329340
  78.3821670  72.8163030  94.8851730  78.0421720  73.2938260  95.6418780
  77.6198990  72.3628150  94.5252830  82.5939440  73.9348620  88.9164280
  82.7152260  73.8935100  89.8650100  82.2087950  74.7972770  88.7611010
  81.6060940  76.2449760  88.3147580  81.0377840  75.7968010  87.6883490
  82.3149940  76.6042540  87.7812730  75.6967750  71.7382010  93.8016400
  75.4114670  71.3737680  94.6395020  75.6346610  71.0062470  93.1879540
  79.1508420  80.2407950  90.5873990  78.3770680  79.7005570  90.4272710
  79.8803050  79.7214560  90.2491750  85.3706340  70.6311270  90.5229770
  84.5570950  70.1324440  90.4475080  85.1768290  71.4709520  90.1066120
  88.0854730  75.0030920  88.8191930  88.9734350  75.3148150  88.6443270
  88.0559820  74.1303170  88.4272510  79.1945820  79.9088330  94.2252800
  79.7124490  79.1056590  94.1709690  78.7429840  79.8467470  95.0669630
  84.0815320  81.1754610  89.4980100  84.4231020  81.9196840  89.0023420
  83.2528030  81.4885730  89.8604930  86.9642730  80.4970450  94.8625610
  87.3166550  79.8998580  94.2026980  86.0805060  80.1714680  95.0333860
  83.0506010  81.2568140  92.2696020  83.7377140  81.8037350  92.6503610
  82.2638430  81.8008870  92.3045630  75.1898410  76.8740960  87.7613100
  76.0593260  77.1565760  88.0449020  74.6988730  77.6876830  87.6461910
  82.3533220  78.2614170  91.8821380  82.8096000  79.0719420  92.1081570
  82.0021430  77.9437310  92.7139870  78.2545000  68.6051820  92.3543900
  78.1259630  68.5969720  93.3028820  77.4307020  68.9434910  92.0034910
  89.7753630  82.0601480  87.5530270  89.5491210  81.3431920  88.1454910
  89.3849830  81.8113920  86.7152020  75.5569660  86.0868340  88.3274730
  75.9167300  86.6857680  87.6732000  75.4162000  86.6328230  89.1009760
  89.3569880  79.9773420  89.2144430  89.0691580  80.4386110  90.0022310
  90.1522050  79.5171190  89.4828650  81.5738280  83.4699540  89.1448400
  81.5648380  84.2029230  88.5292910  80.6536640  83.2231120  89.2375360
  77.1744920  78.6914430  89.8895160  76.5672870  79.4313330  89.8990460
  77.6494270  78.7813790  89.0633360  90.1139740  71.8122190  90.3739610
  89.4852900  71.9167860  89.6597840  89.6191660  72.0318970  91.1633490
  84.5597880  83.5327780  87.8073590  84.6609860  83.3291770  86.8775570
  83.6599620  83.2786060  88.0121370  82.0823770  74.0908140  91.7897490
  81.3739920  74.5594480  92.2311100  82.3668250  73.4330150  92.4242680
  86.1139200  70.8158800  93.2293280  85.9906980  70.8344930  92.2802790
  87.0623760  70.8637740  93.3491680  83.2015990  86.0514100  92.5021260
  83.4557490  86.0135490  91.5800630  82.2528470  85.9247430  92.4949510
  80.2858790  72.3993220  89.1648200  81.1349320  72.8363370  89.0988390
  79.9190060  72.7113480  89.9920260  89.2068570  76.9705980  94.0779770
  88.2658710  76.9856210  94.2527460  89.5212640  76.1841940  94.5240070
  79.1850210  78.6525580  87.6383730  79.9513480  78.5406940  88.2009160
  79.2624900  77.9563550  86.9860500  77.8796970  76.0850650  88.3216620
  77.9600560  75.1378160  88.4334020  78.7716720  76.4157530  88.4277280
  78.6811680  86.2346040  95.4251160  79.4174160  85.6861500  95.6959730
  79.0652600  87.1002050  95.2857150  75.5657160  82.3019610  91.2992670
  74.6396940  82.5440750  91.2898080  76.0313590  83.1293870  91.1777420
  81.7913990  85.4076350  87.2476730  82.5842600  85.6965180  86.7958520
  81.2718340  84.9768520  86.5689210  82.3091390  80.6279760  87.1119080
  82.2042030  80.0132110  87.8380460  82.1415610  80.1045650  86.3282090
  85.5494120  79.6899790  87.7161070  85.0004220  80.1369090  88.3603810
  86.1713380  79.1849040  88.2398740  81.2169240  78.6490710  89.6126370
  81.6385660  78.4830580  90.4557760  81.3420080  77.8390940  89.1181510
  83.7296880  77.6728320  86.8603470  84.2502540  76.9577340  86.4944620
  84.3765280  78.3114190  87.1603980  80.1128140  74.7223940  86.5584530
  79.9117200  73.8591300  86.9197870  79.9420190  74.6357300  85.6206130
  87.5916450  69.5332170  89.0871410  87.8718740  68.6900070  89.4430830
  86.8182180  69.7655280  89.6010160  78.9110940  71.8224560  86.5462410
  79.2136840  71.8291990  85.6381560  79.6505530  71.4722420  87.0430070
  82.1295870  70.7659180  87.5318610  81.7817870  70.0883170  86.9521060
  82.3308640  70.3048690  88.3462000  84.2944910  85.7539930  89.1505210
  85.1895700  86.0924900  89.1723970  84.3262540  85.0319340  88.5229490
  77.9341070  81.1266980  87.3792210  78.3715940  81.6696650  88.0349790
  78.4188800  80.3013930  87.3888550  75.1486870  83.9156010  94.8312470
  75.4789880  83.0477070  94.5991110  75.5777870  84.1214530  95.6617430
  79.7448790  82.2465020  92.4914440  79.4444330  82.1229990  93.3918350
  79.6386280  81.3873610  92.0830170  75.4701510  77.2946830  93.9282980
  74.8150350  77.0258470  93.2842680  76.3079460  77.1851310  93.4784960
  88.4191950  72.0888120  88.1501470  88.8376830  71.9019100  87.3098130
  88.1128010  71.2367170  88.4604400  74.6839590  74.5045760  89.8708310
  73.7803670  74.7675960  89.6959970  75.1680210  74.7756930  89.0908270
  77.2266800  73.5611300  87.7802690  77.9358500  73.1394520  87.2949970
  76.5106740  73.6286530  87.1486040  76.8740960  69.6150630  86.8205340
  77.5969090  70.1559570  87.1386560  77.1465480  69.3414050  85.9446880
  90.0166950  85.7614180  93.4815840  90.6126020  85.4398750  92.8050260
  90.2745100  85.2886000  94.2729110  89.5068460  70.0519510  95.9376280
  89.9476550  69.9964610  95.0897880  89.2376050  70.9677520  96.0086460
  75.6759780  85.8227110  92.9109050  75.5081820  85.1897790  93.6090940
  74.8094290  86.0286510  92.5603240  76.2987800  69.6543890  90.4140910
  77.0567160  69.7672770  89.8404940  75.8364970  70.4913090  90.3684340
  82.8401610  71.7683160  93.4043220  82.0276120  71.3940050  93.0639100
  83.3443250  71.0128240  93.7064410  87.3426590  68.4325610  94.6426290
  87.9455960  69.0045820  95.1174810  86.6019580  68.9965050  94.4200190
  90.4861190  68.8347170  89.9166570  90.6811820  69.7330620  90.1834000
  89.6991060  68.6034250  90.4099520  77.2822480  84.5160340  90.3559190
  76.7570100  84.8968370  89.6521150  77.2067060  85.1411110  91.0768900
  78.6712950  70.1807940  88.9542880  79.2005710  69.3937740  88.8250830
  79.3041270  70.8599130  89.1878410  80.8650790  69.9183080  92.0088270
  80.2353530  69.2170390  92.1758400  80.3255930  70.6787210  91.7921430
  79.8815450  86.4642720  89.2308440  80.6134270  86.1802000  88.6832330
  80.1409120  86.2256000  90.1207820  79.0430240  82.5807450  89.2354770
  78.4139120  83.0492550  89.7840600  79.1578070  81.7356670  89.6700960
  86.4979960  76.6313110  75.3855970  86.4174010  75.7167720  75.1147680
  86.0844380  77.1280180  74.6795680  84.6298000  78.4092130  77.2665240
  83.8540100  77.9292570  77.5563810  85.2810930  77.7297780  77.0921400
  78.6463830  78.7211940  78.1441000  77.8148710  78.4660650  78.5437510
  79.2544810  78.7922710  78.8798920  88.6505430  82.8152320  76.0464370
  88.1886960  82.0439560  76.3751540  89.4630980  82.8418390  76.5516820
  78.6265090  82.7552030  78.3399020  78.9293130  81.8649770  78.1609240
  79.3708680  83.3122250  78.1121270  77.0555780  73.6813830  71.9283390
  76.1672480  74.0229800  71.8263270  77.3396970  73.4814150  71.0364220
  75.0188790  76.2819480  77.8123090  75.5904900  75.5141680  77.8126730
  75.0190330  76.5808240  76.9029700  84.8768740  85.1010330  75.6668360
  84.2580180  85.5567830  75.0962800  85.7320520  85.2561790  75.2658060
  84.0706990  81.0849320  77.2735400  84.0015270  80.1439260  77.1124530
  84.8326850  81.1750730  77.8457970  76.2613660  71.6903840  79.5992020
  76.0816500  70.7929590  79.8794780  75.8593740  72.2375710  80.2738970
  85.1012160  73.8919700  77.5004330  85.4776980  73.0191580  77.3878000
  85.0031670  74.2278400  76.6094770  79.2317170  72.2645330  72.9621770
  79.3383920  73.1649060  73.2690530  78.3209530  72.2163300  72.6716420
  88.8836280  71.3870140  74.4332670  89.7045900  70.8966710  74.4758150
  88.9170360  71.9767800  75.1864510  76.8800330  74.1864340  78.2074360
  77.5610440  74.4502710  78.8261760  76.5648380  73.3465210  78.5412370
  81.0724900  75.2331700  77.2946950  81.5803120  75.7312670  77.9351970
  81.6038140  74.4566900  77.1186310  79.3561000  69.8730260  81.5610370
  79.3579440  70.3902650  80.7556270  78.5265310  69.3960440  81.5380300
  85.7432090  79.9849570  73.0600270  85.1249360  80.4499020  72.4962990
  86.2555340  80.6777050  73.4769780  80.6063850  79.5125440  79.7383870
  80.2733230  80.1394360  80.3804940  80.7830530  80.0387320  78.9585540
  89.1197760  73.3270520  77.2060210  88.4153330  73.6155410  77.7863320
  89.4809920  74.1370630  76.8459770  79.0376330  71.5840220  79.5680820
  79.3793140  72.4282270  79.2734690  78.0992140  71.7323960  79.6846160
  79.8182950  81.4806240  81.5533050  80.4356950  82.1557320  81.2717500
  78.9576070  81.8894220  81.4620550  75.1115290  80.6706100  70.4339900
  74.7343270  81.1593200  69.7024800  75.3688360  81.3431380  71.0646430
  82.7204220  69.0722490  75.8925410  83.0279200  68.5169380  75.1760910
  81.7904920  69.2066950  75.7098400  88.2719280  84.7889780  78.1832870
  88.2846440  84.3852070  77.3155130  87.7194500  85.5637070  78.0794300
  89.5664700  81.5106000  73.2723040  89.4561030  80.5680330  73.3972460
  89.5632950  81.8721640  74.1585800  87.6704720  79.6919620  79.5115480
  88.0873510  79.4779730  78.6768940  88.3944540  79.9492410  80.0824100
  85.1084980  77.1371320  72.6285530  84.1814260  77.0708700  72.8574000
  85.2609800  78.0751450  72.5140770  85.0954060  73.4088320  69.6252690
  84.1557730  73.5702280  69.7105150  85.4137320  74.1274000  69.0788680
  89.1382270  78.6991620  73.1320780  88.5194690  78.3611170  72.4847080
  89.1206720  78.0551380  73.8399970  88.5808830  74.8776160  80.5486590
  88.1680010  75.7029870  80.8026580  87.8484780  74.2921200  80.3562950
  80.7141620  77.6636060  75.4105260  80.3098620  76.9513310  74.9151160
  80.8004740  77.3189300  76.2993300  81.1823320  81.3503620  77.5744470
  80.8851610  80.7449090  76.8952250  82.1323140  81.3880930  77.4633830
  79.4270240  74.4379270  79.1904300  79.9784830  74.5474610  78.4157550
  79.9413750  74.8116870  79.9059530  89.2708930  84.9235490  81.2367570
  88.7939490  85.7307680  81.0440180  88.5870720  84.2713820  81.3893780
  80.2741750  81.0885310  84.2252270  79.3770280  81.3125280  84.4725670
  80.2994620  81.2120250  83.2763670  87.3146970  77.9378430  70.1393530
  87.7540250  77.1000860  69.9931350  88.0275390  78.5707830  70.2257670
  79.1012970  77.9598630  82.8009640  78.9620740  78.8321430  83.1697040
  78.2194330  77.6171440  82.6557580  85.4242350  82.8774500  74.1074770
  85.8638260  83.6198830  73.6930160  85.3629240  83.1201070  75.0313730
  80.8993320  83.9020330  85.0094790  80.8708750  84.3063280  84.1423220
  80.7358290  82.9730690  84.8466390  77.4146250  76.5581040  72.9111910
  77.2943850  77.2843130  72.2993180  77.1047140  75.7883950  72.4339820
  75.0531620  79.7296180  78.7180550  75.1312040  79.8644950  77.7736270
  75.6673300  79.0212070  78.9108670  76.2979250  81.4296370  75.1286730
  75.8907330  81.5710960  74.2740330  77.1892260  81.1456530  74.9257940
  86.1158130  85.5788280  82.0353780  86.6302800  85.4896290  82.8376210
  85.2727210  85.9247980  82.3281690  88.0912530  85.8643620  71.4637780
  87.9313670  85.5746560  72.3619610  87.9259240  85.0883750  70.9283010
  80.5700910  85.6442150  73.2409400  80.3943390  84.7277690  73.0277200
  79.7156650  86.0029440  73.4807200  87.7938660  83.3731180  70.0235780
  87.1003820  83.3708470  69.3638060  88.5361520  82.9490500  69.5929950
  87.3588590  84.9993890  74.0984270  87.8145540  84.2183270  74.4122890
  87.6981110  85.7100710  74.6425450  75.1091140  80.7710350  81.2575010
  75.2722180  80.3015710  80.4394380  75.5743590  80.2633910  81.9223850
  79.8809910  69.9016110  76.2935580  79.4378060  70.6825650  75.9620100
  80.4394900  70.2246000  77.0006520  84.1679720  72.7684630  81.8970900
  83.7059090  72.9767650  82.7090840  83.7657830  71.9543980  81.5941570
  89.1684230  73.9893580  83.0267560  88.3177820  73.6899330  83.3476630
  89.0086020  74.2335590  82.1151380  86.2633940  75.4895330  85.1266350
  86.5887350  74.6559080  84.7868580  87.0514270  76.0123850  85.2744680
  82.9968730  69.5226810  71.1741410  82.3722910  69.5186680  71.8994720
  82.9098850  68.6557770  70.7777380  81.9185810  70.4463440  78.1525180
  82.2158140  71.3526270  78.0717200  82.4671370  69.9582220  77.5384750
  79.6724130  75.0249680  74.0216830  79.4465050  74.8086850  74.9263450
  78.8916660  75.4578140  73.6762800  86.9021890  75.0313050  72.6207480
  86.3030780  75.7548850  72.4371100  87.4501500  74.9689830  71.8383930
  82.1123340  75.9235260  84.6877100  82.0166940  74.9829990  84.5377500
  82.9555320  76.1450330  84.2925170  85.5086760  73.6676590  74.6510760
  85.9016330  73.9848790  73.8379450  85.8703610  72.7888470  74.7655280
  77.2433880  72.3348930  82.8410880  76.8497270  73.1824140  83.0483660
  76.5552280  71.6975300  83.0319520  83.8178930  72.4183900  85.9107620
  83.1277250  72.2256100  86.5453710  84.5611230  72.7018540  86.4431920
  74.5450930  70.2577390  76.8740960  74.2563980  70.8280250  77.5865940
  75.2896690  69.7781840  77.2372190  74.7321160  74.1997510  68.0843680
  74.6495830  75.1428270  68.2258670  74.3804220  74.0572420  67.2056030
  86.0941900  76.2582340  78.7461540  85.3623020  76.7669150  79.0951640
  85.6966240  75.4412320  78.4450320  82.5319290  72.9336540  77.1514030
  82.5355350  72.4926490  76.3018570  83.4270410  73.2553870  77.2585850
  78.3821670  72.8163030  76.1108240  78.0421720  73.2938260  76.8675290
  77.6198990  72.3628150  75.7509340  82.5939440  73.9348620  70.1420790
  82.7152260  73.8935100  71.0906610  82.2087950  74.7972770  69.9867520
  86.5567810  71.7116020  78.1584480  86.5740550  72.1624670  79.0026330
  86.3083390  70.8121660  78.3717920  81.6060940  76.2449760  69.5404090
  81.0377840  75.7968010  68.9140000  82.3149940  76.6042540  69.0069240
  89.9838560  69.1248200  83.9970860  90.3084330  68.3937860  84.5228840
  90.0195070  68.8061840  83.0951850  76.6830120  80.1461780  83.4170820
  76.2984910  79.5055450  84.0153780  76.9942310  80.8497900  83.9865550
  82.8327260  76.9938320  78.8979440  83.1997390  76.5196890  79.6440780
  82.6432320  77.8679890  79.2387780  75.6967750  71.7382010  75.0272910
  75.4114670  71.3737680  75.8651530  75.6346610  71.0062470  74.4136050
  80.6226630  76.0346960  81.2163650  80.3183700  76.9138940  81.4414010
  81.5773090  76.0946750  81.2521090  79.1508420  80.2407950  71.8130500
  78.3770680  79.7005570  71.6529220  79.8803050  79.7214560  71.4748260
  89.9096400  79.2373310  77.6056890  90.6295520  79.7328600  77.2153000
  89.7078220  78.5591200  76.9610760  85.3706340  70.6311270  71.7486280
  84.5570950  70.1324440  71.6731590  85.1768290  71.4709520  71.3322630
  85.2915200  79.3082370  83.4925890  85.2252510  78.3878040  83.2383480
  84.6620340  79.4057810  84.2070530  88.0854730  75.0030920  70.0448440
  88.9734350  75.3148150  69.8699780  88.0559820  74.1303170  69.6529020
  79.1945820  79.9088330  75.4509310  79.7124490  79.1056590  75.3966200
  78.7429840  79.8467470  76.2926140  84.0815320  81.1754610  70.7236610
  84.4231020  81.9196840  70.2279930  83.2528030  81.4885730  71.0861440
  76.6790360  76.8749700  82.3635010  76.3205300  77.5403550  82.9508350
  76.3844920  76.0433250  82.7347630  79.8803480  77.3333940  85.2474560
  79.5803620  77.4791120  84.3502380  80.6514720  76.7739230  85.1547950
  85.2231930  82.1302940  83.2429690  85.2376470  81.1983900  83.0248600
  84.5157030  82.2162700  83.8819460  86.9642730  80.4970450  76.0882120
  87.3166550  79.8998580  75.4283490  86.0805060  80.1714680  76.2590370
  83.0506010  81.2568140  73.4952530  83.7377140  81.8037350  73.8760120
  82.2638430  81.8008870  73.5302140  75.1898410  76.8740960  68.9869610
  76.0593260  77.1565760  69.2705530  74.6988730  77.6876830  68.8718420
  82.3533220  78.2614170  73.1077890  82.8096000  79.0719420  73.3338080
  82.0021430  77.9437310  73.9396380  84.6565830  83.7720510  80.3370190
  85.3008050  83.9779890  81.0143610  85.0195270  83.0108910  79.8841040
  78.2545000  68.6051820  73.5800410  78.1259630  68.5969720  74.5285330
  77.4307020  68.9434910  73.2291420  85.9297910  81.7752860  79.0547640
  86.5720140  81.0746020  79.1679810  86.4547260  82.5551300  78.8744530
  89.7753630  82.0601480  68.7786780  89.5491210  81.3431920  69.3711420
  89.3849830  81.8113920  67.9408530  87.7035530  82.5747760  82.2583700
  88.0391770  83.1614450  82.9361620  86.7835870  82.4440470  82.4881490
  75.5569660  86.0868340  69.5531240  75.9167300  86.6857680  68.8988510
  75.4162000  86.6328230  70.3266270  75.2538930  70.3642940  83.0407110
  74.5397450  70.5639860  83.6459720  75.6733970  69.5882510  83.4121910
  89.3569880  79.9773420  70.4400940  89.0691580  80.4386110  71.2278820
  90.1522050  79.5171190  70.7085160  75.5411520  84.3523200  84.0273640
  75.6502640  83.4117940  83.8869030  74.8892080  84.6177950  83.3787370
  83.5324110  82.6239090  85.4271760  83.2120980  81.9048330  85.9717450
  82.8582470  83.2994160  85.5007820  81.5738280  83.4699540  70.3704910
  81.5648380  84.2029230  69.7549420  80.6536640  83.2231120  70.4631870
  77.1744920  78.6914430  71.1151670  76.5672870  79.4313330  71.1246970
  77.6494270  78.7813790  70.2889870  86.7477710  72.8565250  80.7908560
  87.1158530  72.0360460  81.1188130  85.8875910  72.9167140  81.2064210
  90.1139740  71.8122190  71.5996120  89.4852900  71.9167860  70.8854350
  89.6191660  72.0318970  72.3890000  84.5597880  83.5327780  69.0330100
  84.6609860  83.3291770  68.1032080  83.6599620  83.2786060  69.2377880
  82.0823770  74.0908140  73.0154000  81.3739920  74.5594480  73.4567610
  82.3668250  73.4330150  73.6499190  83.7079700  75.5104840  81.0146530
  84.2064950  75.9850660  81.6798380  83.8502650  74.5868360  81.2216560
  86.1139200  70.8158800  74.4549790  85.9906980  70.8344930  73.5059300
  87.0623760  70.8637740  74.5748190  83.2015990  86.0514100  73.7277770
  83.4557490  86.0135490  72.8057140  82.2528470  85.9247430  73.7206020
  80.2858790  72.3993220  70.3904710  81.1349320  72.8363370  70.3244900
  79.9190060  72.7113480  71.2176770  89.2068570  76.9705980  75.3036280
  88.2658710  76.9856210  75.4783970  89.5212640  76.1841940  75.7496580
  79.1850210  78.6525580  68.8640240  79.9513480  78.5406940  69.4265670
  79.2624900  77.9563550  68.2117010  77.8796970  76.0850650  69.5473130
  77.9600560  75.1378160  69.6590530  78.7716720  76.4157530  69.6533790
  78.6811680  86.2346040  76.6507670  79.4174160  85.6861500  76.9216240
  79.0652600  87.1002050  76.5113660  75.5657160  82.3019610  72.5249180
  74.6396940  82.5440750  72.5154590  76.0313590  83.1293870  72.4033930
  77.6869960  85.4192110  85.8393250  78.4882690  85.7404160  86.2528650
  77.1721780  85.0587690  86.5613160  81.7913990  85.4076350  68.4733240
  82.5842600  85.6965180  68.0215030  81.2718340  84.9768520  67.7945720
  86.5234590  81.5271980  85.7868660  85.9172750  81.5503580  85.0464410
  86.2188700  80.7955020  86.3235910  87.9534960  85.2552270  84.3978070
  88.9056710  85.1710290  84.3478310  87.8063180  85.9193980  85.0711860
  75.4067770  77.9065570  84.7829300  75.9106790  77.3272850  85.3545530
  74.6675190  78.1905800  85.3205670  82.3091390  80.6279760  68.3375590
  82.2042030  80.0132110  69.0636970  82.1415610  80.1045650  67.5538600
  82.4605710  79.3136560  84.3164820  81.6951380  79.8821560  84.2319490
  82.6421670  79.0212770  83.4233050  85.5494120  79.6899790  68.9417580
  85.0004220  80.1369090  69.5860320  86.1713380  79.1849040  69.4655250
  89.6029060  81.0441890  84.8739840  90.3438530  81.3817650  84.3707300
  88.8401740  81.2133950  84.3209610  77.4390850  76.0495160  85.6779370
  77.4796190  75.7509030  86.5864600  78.2936350  76.4502770  85.5186890
  81.2169240  78.6490710  70.8382880  81.6385660  78.4830580  71.6814270
  81.3420080  77.8390940  70.3438020  79.3796660  74.6287260  83.6453860
  78.8493120  74.1378210  83.0177200  80.0484730  75.0571460  83.1111790
  83.7296880  77.6728320  68.0859980  84.2502540  76.9577340  67.7201130
  84.3765280  78.3114190  68.3860490  88.2774720  79.0956720  83.4095050
  88.6915740  79.2501800  84.2585470  87.3425720  79.2211940  83.5720830
  88.7496890  76.4352880  85.4134200  89.3317660  75.6805200  85.3254680
  88.9258660  76.9660320  84.6365680  79.8668960  71.5949630  83.7251150
  79.7725830  70.9770380  83.0002020  79.2866350  72.3215920  83.4981060
  82.6330400  70.1522870  80.7578540  82.1847700  70.1747130  79.9124090
  81.9995600  69.7541890  81.3548840  83.0389950  79.0477200  81.3790980
  83.4578060  79.8909930  81.2067220  82.1198580  79.1849240  81.1497760
  85.3753850  76.7793380  82.7628820  85.4950060  76.1834520  83.5023660
  86.2347850  76.8163070  82.3430120  87.7141750  77.3330570  81.3391330
  87.1876970  77.8573190  80.7356470  88.0573090  77.9657960  81.9701060
  80.1128140  74.7223940  67.7841040  79.9117200  73.8591300  68.1454380
  79.9420190  74.6357300  66.8462640  80.8897370  85.3530210  82.4948710
  80.3518460  86.0776270  82.1757410  81.1431330  84.8760550  81.7046050
  82.1422620  73.3214730  84.0204640  82.7322310  73.0130580  84.7082460
  81.3242860  72.8494480  84.1764540  86.9616050  72.9380540  84.2537660
  86.2731570  72.2762080  84.1887650  87.6822070  72.4918810  84.6986120
  87.5916450  69.5332170  70.3127920  87.8718740  68.6900070  70.6687340
  86.8182180  69.7655280  70.8266670  78.9110940  71.8224560  67.7718920
  79.2136840  71.8291990  66.8638070  79.6505530  71.4722420  68.2686580
  83.7459580  86.5881420  82.7535360  83.6718280  87.4916560  83.0607730
  82.8438420  86.2693320  82.7257430  82.1295870  70.7659180  68.7575120
  81.7817870  70.0883170  68.1777570  82.3308640  70.3048690  69.5718510
  84.2944910  85.7539930  70.3761720  85.1895700  86.0924900  70.3980480
  84.3262540  85.0319340  69.7486000  77.9341070  81.1266980  68.6048720
  78.3715940  81.6696650  69.2606300  78.4188800  80.3013930  68.6145060
  75.1486870  83.9156010  76.0568980  75.4789880  83.0477070  75.8247620
  75.5777870  84.1214530  76.8873940  79.7448790  82.2465020  73.7170950
  79.4444330  82.1229990  74.6174860  79.6386280  81.3873610  73.3086680
  75.6377080  84.7826600  78.7950610  75.2008070  84.9627400  79.6274760
  76.2054760  85.5401220  78.6532330  75.4701510  77.2946830  75.1539490
  74.8150350  77.0258470  74.5099190  76.3079460  77.1851310  74.7041470
  89.9590900  81.0095580  81.1804080  89.1450740  81.4392740  81.4429870
  90.3665100  81.6213990  80.5673130  88.4191950  72.0888120  69.3757980
  88.8376830  71.9019100  68.5354640  88.1128010  71.2367170  69.6860910
  76.5077440  77.6799400  79.6942830  76.8750480  77.5926800  80.5738850
  75.9388260  76.9165950  79.5949690  76.0593440  74.5908490  83.6001250
  75.1649490  74.5575250  83.9394960  76.5990990  74.7895280  84.3652500
  89.7469370  71.3740210  85.4853000  90.6239550  71.3823610  85.8687000
  89.7590210  70.6371050  84.8745350  74.6839590  74.5045760  71.0964820
  73.7803670  74.7675960  70.9216480  75.1680210  74.7756930  70.3164780
  77.2266800  73.5611300  69.0059200  77.9358500  73.1394520  68.5206480
  76.5106740  73.6286530  68.3742550  76.8740960  69.6150630  68.0461850
  77.5969090  70.1559570  68.3643070  77.1465480  69.3414050  67.1703390
  76.5633150  68.8656820  77.9484470  77.2109340  68.3154200  77.5079630
  76.9834990  69.1199970  78.7700280  90.0166950  85.7614180  74.7072350
  90.6126020  85.4398750  74.0306770  90.2745100  85.2886000  75.4985620
  76.3165150  69.0212490  80.6909790  75.9679970  69.4776310  81.4567970
  75.9852850  68.1269620  80.7732220  77.9229520  82.1932090  84.8562980
  77.8799150  81.8225000  85.7377440  78.0540530  83.1309660  84.9964800
  81.6235550  83.7491680  80.4572700  81.3826910  84.0166240  79.5703220
  82.5638190  83.9197410  80.5123560  83.8289970  70.2124370  84.2129210
  83.7678860  70.8046200  84.9624620  84.7690350  70.1050330  84.0679470
  86.4664530  69.8694430  83.8521500  87.0804940  70.1873720  83.1902580
  87.0114090  69.3843020  84.4717360  76.9885790  68.5488690  83.9660560
  77.5368780  68.3676740  83.2026670  77.0541100  67.7582800  84.5016870
  77.7617550  85.1394340  81.9760760  77.1677870  85.0079040  82.7150800
  77.7541390  84.3032480  81.5102860  87.2072570  68.4326570  80.1790790
  86.3332410  68.7661680  79.9763720  87.0983320  67.9599750  81.0042660
  88.1144550  70.6397440  81.5632510  87.7857910  69.8249200  81.1834240
  89.0626850  70.5967250  81.4398200  90.5679160  86.4109480  78.5370080
  90.1082130  87.1625290  78.1628100  89.9391620  85.6915950  78.4784880
  77.3929780  82.5052720  80.9268800  76.6663840  81.8858010  80.8594750
  77.4538930  82.8993330  80.0566880  80.9974880  84.7197720  77.7118210
  81.5139900  84.1085080  77.1866470  81.6472260  85.2226500  78.2029220
  83.7370380  85.6106210  78.5387190  84.0248190  85.3560510  77.6620200
  84.2493600  85.0583570  79.1292760  84.9547390  69.3496410  79.1183700
  84.1719180  69.8241910  79.3980460  84.6610320  68.4451240  79.0096880
  89.5068460  70.0519510  77.1632790  89.9476550  69.9964610  76.3154390
  89.2376050  70.9677520  77.2342970  75.6759780  85.8227110  74.1365560
  75.5081820  85.1897790  74.8347450  74.8094290  86.0286510  73.7859750
  76.2987800  69.6543890  71.6397420  77.0567160  69.7672770  71.0661450
  75.8364970  70.4913090  71.5940850  82.8401610  71.7683160  74.6299730
  82.0276120  71.3940050  74.2895610  83.3443250  71.0128240  74.9320920
  87.3426590  68.4325610  75.8682800  87.9455960  69.0045820  76.3431320
  86.6019580  68.9965050  75.6456700  90.4861190  68.8347170  71.1423080
  90.6811820  69.7330620  71.4090510  89.6991060  68.6034250  71.6356030
  77.2822480  84.5160340  71.5815700  76.7570100  84.8968370  70.8777660
  77.2067060  85.1411110  72.3025410  78.6712950  70.1807940  70.1799390
  79.2005710  69.3937740  70.0507340  79.3041270  70.8599130  70.4134920
  80.8650790  69.9183080  73.2344780  80.2353530  69.2170390  73.4014910
  80.3255930  70.6787210  73.0177940  83.8042740  86.5322310  85.9055390
  84.7310050  86.2966580  85.9491350  83.7893170  87.3594310  85.4241420
  80.9906350  69.1967060  85.6697270  80.7090620  69.7000660  84.9058090
  81.3726050  68.3988810  85.3039400  79.8815450  86.4642720  70.4564950
  80.6134270  86.1802000  69.9088840  80.1409120  86.2256000  71.3464330
  79.0430240  82.5807450  70.4611280  78.4139120  83.0492550  71.0097110
  79.1578070  81.7356670  70.8957470  87.5921810  68.6120640  86.2477740
  87.4787260  68.9315250  87.1429260  88.4091550  69.0133150  85.9515020
  86.4979960  76.6313110  56.6112480  86.4174010  75.7167720  56.3404190
  86.0844380  77.1280180  55.9052190  84.6298000  78.4092130  58.4921750
  83.8540100  77.9292570  58.7820320  85.2810930  77.7297780  58.3177910
  78.6463830  78.7211940  59.3697510  77.8148710  78.4660650  59.7694020
  79.2544810  78.7922710  60.1055430  88.6505430  82.8152320  57.2720880
  88.1886960  82.0439560  57.6008050  89.4630980  82.8418390  57.7773330
  78.6265090  82.7552030  59.5655530  78.9293130  81.8649770  59.3865750
  79.3708680  83.3122250  59.3377780  77.0555780  73.6813830  53.1539900
  76.1672480  74.0229800  53.0519780  77.3396970  73.4814150  52.2620730
  75.0188790  76.2819480  59.0379600  75.5904900  75.5141680  59.0383240
  75.0190330  76.5808240  58.1286210  84.8768740  85.1010330  56.8924870
  84.2580180  85.5567830  56.3219310  85.7320520  85.2561790  56.4914570
  84.0706990  81.0849320  58.4991910  84.0015270  80.1439260  58.3381040
  84.8326850  81.1750730  59.0714480  76.2613660  71.6903840  60.8248530
  76.0816500  70.7929590  61.1051290  75.8593740  72.2375710  61.4995480
  85.1012160  73.8919700  58.7260840  85.4776980  73.0191580  58.6134510
  85.0031670  74.2278400  57.8351280  79.2317170  72.2645330  54.1878280
  79.3383920  73.1649060  54.4947040  78.3209530  72.2163300  53.8972930
  88.8836280  71.3870140  55.6589180  89.7045900  70.8966710  55.7014660
  88.9170360  71.9767800  56.4121020  76.8800330  74.1864340  59.4330870
  77.5610440  74.4502710  60.0518270  76.5648380  73.3465210  59.7668880
  81.0724900  75.2331700  58.5203460  81.5803120  75.7312670  59.1608480
  81.6038140  74.4566900  58.3442820  79.3561000  69.8730260  62.7866880
  79.3579440  70.3902650  61.9812780  78.5265310  69.3960440  62.7636810
  85.7432090  79.9849570  54.2856780  85.1249360  80.4499020  53.7219500
  86.2555340  80.6777050  54.7026290  80.6063850  79.5125440  60.9640380
  80.2733230  80.1394360  61.6061450  80.7830530  80.0387320  60.1842050
  89.1197760  73.3270520  58.4316720  88.4153330  73.6155410  59.0119830
  89.4809920  74.1370630  58.0716280  79.0376330  71.5840220  60.7937330
  79.3793140  72.4282270  60.4991200  78.0992140  71.7323960  60.9102670
  79.8182950  81.4806240  62.7789560  80.4356950  82.1557320  62.4974010
  78.9576070  81.8894220  62.6877060  75.1115290  80.6706100  51.6596410
  74.7343270  81.1593200  50.9281310  75.3688360  81.3431380  52.2902940
  82.7204220  69.0722490  57.1181920  83.0279200  68.5169380  56.4017420
  81.7904920  69.2066950  56.9354910  88.2719280  84.7889780  59.4089380
  88.2846440  84.3852070  58.5411640  87.7194500  85.5637070  59.3050810
  89.5664700  81.5106000  54.4979550  89.4561030  80.5680330  54.6228970
  89.5632950  81.8721640  55.3842310  87.6704720  79.6919620  60.7371990
  88.0873510  79.4779730  59.9025450  88.3944540  79.9492410  61.3080610
  85.1084980  77.1371320  53.8542040  84.1814260  77.0708700  54.0830510
  85.2609800  78.0751450  53.7397280  85.0954060  73.4088320  50.8509200
  84.1557730  73.5702280  50.9361660  85.4137320  74.1274000  50.3045190
  89.1382270  78.6991620  54.3577290  88.5194690  78.3611170  53.7103590
  89.1206720  78.0551380  55.0656480  88.5808830  74.8776160  61.7743100
  88.1680010  75.7029870  62.0283090  87.8484780  74.2921200  61.5819460
  80.7141620  77.6636060  56.6361770  80.3098620  76.9513310  56.1407670
  80.8004740  77.3189300  57.5249810  81.1823320  81.3503620  58.8000980
  80.8851610  80.7449090  58.1208760  82.1323140  81.3880930  58.6890340
  79.4270240  74.4379270  60.4160810  79.9784830  74.5474610  59.6414060
  79.9413750  74.8116870  61.1316040  89.2708930  84.9235490  62.4624080
  88.7939490  85.7307680  62.2696690  88.5870720  84.2713820  62.6150290
  80.2741750  81.0885310  65.4508780  79.3770280  81.3125280  65.6982180
  80.2994620  81.2120250  64.5020180  87.3146970  77.9378430  51.3650040
  87.7540250  77.1000860  51.2187860  88.0275390  78.5707830  51.4514180
  79.1012970  77.9598630  64.0266150  78.9620740  78.8321430  64.3953550
  78.2194330  77.6171440  63.8814090  85.4242350  82.8774500  55.3331280
  85.8638260  83.6198830  54.9186670  85.3629240  83.1201070  56.2570240
  80.8993320  83.9020330  66.2351300  80.8708750  84.3063280  65.3679730
  80.7358290  82.9730690  66.0722900  77.4146250  76.5581040  54.1368420
  77.2943850  77.2843130  53.5249690  77.1047140  75.7883950  53.6596330
  75.0531620  79.7296180  59.9437060  75.1312040  79.8644950  58.9992780
  75.6673300  79.0212070  60.1365180  76.2979250  81.4296370  56.3543240
  75.8907330  81.5710960  55.4996840  77.1892260  81.1456530  56.1514450
  86.1158130  85.5788280  63.2610290  86.6302800  85.4896290  64.0632720
  85.2727210  85.9247980  63.5538200  88.0912530  85.8643620  52.6894290
  87.9313670  85.5746560  53.5876120  87.9259240  85.0883750  52.1539520
  80.5700910  85.6442150  54.4665910  80.3943390  84.7277690  54.2533710
  79.7156650  86.0029440  54.7063710  87.7938660  83.3731180  51.2492290
  87.1003820  83.3708470  50.5894570  88.5361520  82.9490500  50.8186460
  87.3588590  84.9993890  55.3240780  87.8145540  84.2183270  55.6379400
  87.6981110  85.7100710  55.8681960  75.1091140  80.7710350  62.4831520
  75.2722180  80.3015710  61.6650890  75.5743590  80.2633910  63.1480360
  79.8809910  69.9016110  57.5192090  79.4378060  70.6825650  57.1876610
  80.4394900  70.2246000  58.2263030  84.1679720  72.7684630  63.1227410
  83.7059090  72.9767650  63.9347350  83.7657830  71.9543980  62.8198080
  89.1684230  73.9893580  64.2524070  88.3177820  73.6899330  64.5733140
  89.0086020  74.2335590  63.3407890  86.2633940  75.4895330  66.3522860
  86.5887350  74.6559080  66.0125090  87.0514270  76.0123850  66.5001190
  82.9968730  69.5226810  52.3997920  82.3722910  69.5186680  53.1251230
  82.9098850  68.6557770  52.0033890  81.9185810  70.4463440  59.3781690
  82.2158140  71.3526270  59.2973710  82.4671370  69.9582220  58.7641260
  79.6724130  75.0249680  55.2473340  79.4465050  74.8086850  56.1519960
  78.8916660  75.4578140  54.9019310  86.9021890  75.0313050  53.8463990
  86.3030780  75.7548850  53.6627610  87.4501500  74.9689830  53.0640440
  82.1123340  75.9235260  65.9133610  82.0166940  74.9829990  65.7634010
  82.9555320  76.1450330  65.5181680  85.5086760  73.6676590  55.8767270
  85.9016330  73.9848790  55.0635960  85.8703610  72.7888470  55.9911790
  77.2433880  72.3348930  64.0667390  76.8497270  73.1824140  64.2740170
  76.5552280  71.6975300  64.2576030  83.8178930  72.4183900  67.1364130
  83.1277250  72.2256100  67.7710220  84.5611230  72.7018540  67.6688430
  74.5450930  70.2577390  58.0997470  74.2563980  70.8280250  58.8122450
  75.2896690  69.7781840  58.4628700  74.7321160  74.1997510  49.3100190
  74.6495830  75.1428270  49.4515180  74.3804220  74.0572420  48.4312540
  86.0941900  76.2582340  59.9718050  85.3623020  76.7669150  60.3208150
  85.6966240  75.4412320  59.6706830  82.5319290  72.9336540  58.3770540
  82.5355350  72.4926490  57.5275080  83.4270410  73.2553870  58.4842360
  78.3821670  72.8163030  57.3364750  78.0421720  73.2938260  58.0931800
  77.6198990  72.3628150  56.9765850  82.5939440  73.9348620  51.3677300
  82.7152260  73.8935100  52.3163120  82.2087950  74.7972770  51.2124030
  86.5567810  71.7116020  59.3840990  86.5740550  72.1624670  60.2282840
  86.3083390  70.8121660  59.5974430  81.6060940  76.2449760  50.7660600
  81.0377840  75.7968010  50.1396510  82.3149940  76.6042540  50.2325750
  89.9838560  69.1248200  65.2227370  90.3084330  68.3937860  65.7485350
  90.0195070  68.8061840  64.3208360  76.6830120  80.1461780  64.6427330
  76.2984910  79.5055450  65.2410290  76.9942310  80.8497900  65.2122060
  82.8327260  76.9938320  60.1235950  83.1997390  76.5196890  60.8697290
  82.6432320  77.8679890  60.4644290  75.6967750  71.7382010  56.2529420
  75.4114670  71.3737680  57.0908040  75.6346610  71.0062470  55.6392560
  80.6226630  76.0346960  62.4420160  80.3183700  76.9138940  62.6670520
  81.5773090  76.0946750  62.4777600  79.1508420  80.2407950  53.0387010
  78.3770680  79.7005570  52.8785730  79.8803050  79.7214560  52.7004770
  89.9096400  79.2373310  58.8313400  90.6295520  79.7328600  58.4409510
  89.7078220  78.5591200  58.1867270  85.3706340  70.6311270  52.9742790
  84.5570950  70.1324440  52.8988100  85.1768290  71.4709520  52.5579140
  85.2915200  79.3082370  64.7182400  85.2252510  78.3878040  64.4639990
  84.6620340  79.4057810  65.4327040  88.0854730  75.0030920  51.2704950
  88.9734350  75.3148150  51.0956290  88.0559820  74.1303170  50.8785530
  79.1945820  79.9088330  56.6765820  79.7124490  79.1056590  56.6222710
  78.7429840  79.8467470  57.5182650  84.0815320  81.1754610  51.9493120
  84.4231020  81.9196840  51.4536440  83.2528030  81.4885730  52.3117950
  76.6790360  76.8749700  63.5891520  76.3205300  77.5403550  64.1764860
  76.3844920  76.0433250  63.9604140  79.8803480  77.3333940  66.4731070
  79.5803620  77.4791120  65.5758890  80.6514720  76.7739230  66.3804460
  85.2231930  82.1302940  64.4686200  85.2376470  81.1983900  64.2505110
  84.5157030  82.2162700  65.1075970  86.9642730  80.4970450  57.3138630
  87.3166550  79.8998580  56.6540000  86.0805060  80.1714680  57.4846880
  83.0506010  81.2568140  54.7209040  83.7377140  81.8037350  55.1016630
  82.2638430  81.8008870  54.7558650  75.1898410  76.8740960  50.2126120
  76.0593260  77.1565760  50.4962040  74.6988730  77.6876830  50.0974930
  82.3533220  78.2614170  54.3334400  82.8096000  79.0719420  54.5594590
  82.0021430  77.9437310  55.1652890  84.6565830  83.7720510  61.5626700
  85.3008050  83.9779890  62.2400120  85.0195270  83.0108910  61.1097550
  78.2545000  68.6051820  54.8056920  78.1259630  68.5969720  55.7541840
  77.4307020  68.9434910  54.4547930  85.9297910  81.7752860  60.2804150
  86.5720140  81.0746020  60.3936320  86.4547260  82.5551300  60.1001040
  89.7753630  82.0601480  50.0043290  89.5491210  81.3431920  50.5967930
  89.3849830  81.8113920  49.1665040  87.7035530  82.5747760  63.4840210
  88.0391770  83.1614450  64.1618130  86.7835870  82.4440470  63.7138000
  75.5569660  86.0868340  50.7787750  75.9167300  86.6857680  50.1245020
  75.4162000  86.6328230  51.5522780  75.2538930  70.3642940  64.2663620
  74.5397450  70.5639860  64.8716230  75.6733970  69.5882510  64.6378420
  89.3569880  79.9773420  51.6657450  89.0691580  80.4386110  52.4535330
  90.1522050  79.5171190  51.9341670  75.5411520  84.3523200  65.2530150
  75.6502640  83.4117940  65.1125540  74.8892080  84.6177950  64.6043880
  83.5324110  82.6239090  66.6528270  83.2120980  81.9048330  67.1973960
  82.8582470  83.2994160  66.7264330  81.5738280  83.4699540  51.5961420
  81.5648380  84.2029230  50.9805930  80.6536640  83.2231120  51.6888380
  77.1744920  78.6914430  52.3408180  76.5672870  79.4313330  52.3503480
  77.6494270  78.7813790  51.5146380  86.7477710  72.8565250  62.0165070
  87.1158530  72.0360460  62.3444640  85.8875910  72.9167140  62.4320720
  90.1139740  71.8122190  52.8252630  89.4852900  71.9167860  52.1110860
  89.6191660  72.0318970  53.6146510  84.5597880  83.5327780  50.2586610
  84.6609860  83.3291770  49.3288590  83.6599620  83.2786060  50.4634390
  82.0823770  74.0908140  54.2410510  81.3739920  74.5594480  54.6824120
  82.3668250  73.4330150  54.8755700  83.7079700  75.5104840  62.2403040
  84.2064950  75.9850660  62.9054890  83.8502650  74.5868360  62.4473070
  86.1139200  70.8158800  55.6806300  85.9906980  70.8344930  54.7315810
  87.0623760  70.8637740  55.8004700  83.2015990  86.0514100  54.9534280
  83.4557490  86.0135490  54.0313650  82.2528470  85.9247430  54.9462530
  80.2858790  72.3993220  51.6161220  81.1349320  72.8363370  51.5501410
  79.9190060  72.7113480  52.4433280  89.2068570  76.9705980  56.5292790
  88.2658710  76.9856210  56.7040480  89.5212640  76.1841940  56.9753090
  79.1850210  78.6525580  50.0896750  79.9513480  78.5406940  50.6522180
  79.2624900  77.9563550  49.4373520  77.8796970  76.0850650  50.7729640
  77.9600560  75.1378160  50.8847040  78.7716720  76.4157530  50.8790300
  78.6811680  86.2346040  57.8764180  79.4174160  85.6861500  58.1472750
  79.0652600  87.1002050  57.7370170  75.5657160  82.3019610  53.7505690
  74.6396940  82.5440750  53.7411100  76.0313590  83.1293870  53.6290440
  77.6869960  85.4192110  67.0649760  78.4882690  85.7404160  67.4785160
  77.1721780  85.0587690  67.7869670  81.7913990  85.4076350  49.6989750
  82.5842600  85.6965180  49.2471540  81.2718340  84.9768520  49.0202230
  86.5234590  81.5271980  67.0125170  85.9172750  81.5503580  66.2720920
  86.2188700  80.7955020  67.5492420  87.9534960  85.2552270  65.6234580
  88.9056710  85.1710290  65.5734820  87.8063180  85.9193980  66.2968370
  75.4067770  77.9065570  66.0085810  75.9106790  77.3272850  66.5802040
  74.6675190  78.1905800  66.5462180  82.3091390  80.6279760  49.5632100
  82.2042030  80.0132110  50.2893480  82.1415610  80.1045650  48.7795110
  82.4605710  79.3136560  65.5421330  81.6951380  79.8821560  65.4576000
  82.6421670  79.0212770  64.6489560  85.5494120  79.6899790  50.1674090
  85.0004220  80.1369090  50.8116830  86.1713380  79.1849040  50.6911760
  89.6029060  81.0441890  66.0996350  90.3438530  81.3817650  65.5963810
  88.8401740  81.2133950  65.5466120  77.4390850  76.0495160  66.9035880
  77.4796190  75.7509030  67.8121110  78.2936350  76.4502770  66.7443400
  81.2169240  78.6490710  52.0639390  81.6385660  78.4830580  52.9070780
  81.3420080  77.8390940  51.5694530  79.3796660  74.6287260  64.8710370
  78.8493120  74.1378210  64.2433710  80.0484730  75.0571460  64.3368300
  83.7296880  77.6728320  49.3116490  84.2502540  76.9577340  48.9457640
  84.3765280  78.3114190  49.6117000  88.2774720  79.0956720  64.6351560
  88.6915740  79.2501800  65.4841980  87.3425720  79.2211940  64.7977340
  88.7496890  76.4352880  66.6390710  89.3317660  75.6805200  66.5511190
  88.9258660  76.9660320  65.8622190  79.8668960  71.5949630  64.9507660
  79.7725830  70.9770380  64.2258530  79.2866350  72.3215920  64.7237570
  82.6330400  70.1522870  61.9835050  82.1847700  70.1747130  61.1380600
  81.9995600  69.7541890  62.5805350  83.0389950  79.0477200  62.6047490
  83.4578060  79.8909930  62.4323730  82.1198580  79.1849240  62.3754270
  85.3753850  76.7793380  63.9885330  85.4950060  76.1834520  64.7280170
  86.2347850  76.8163070  63.5686630  87.7141750  77.3330570  62.5647840
  87.1876970  77.8573190  61.9612980  88.0573090  77.9657960  63.1957570
  80.1128140  74.7223940  49.0097550  79.9117200  73.8591300  49.3710890
  79.9420190  74.6357300  48.0719150  80.8897370  85.3530210  63.7205220
  80.3518460  86.0776270  63.4013920  81.1431330  84.8760550  62.9302560
  82.1422620  73.3214730  65.2461150  82.7322310  73.0130580  65.9338970
  81.3242860  72.8494480  65.4021050  86.9616050  72.9380540  65.4794170
  86.2731570  72.2762080  65.4144160  87.6822070  72.4918810  65.9242630
  87.5916450  69.5332170  51.5384430  87.8718740  68.6900070  51.8943850
  86.8182180  69.7655280  52.0523180  78.9110940  71.8224560  48.9975430
  79.2136840  71.8291990  48.0894580  79.6505530  71.4722420  49.4943090
  83.7459580  86.5881420  63.9791870  83.6718280  87.4916560  64.2864240
  82.8438420  86.2693320  63.9513940  82.1295870  70.7659180  49.9831630
  81.7817870  70.0883170  49.4034080  82.3308640  70.3048690  50.7975020
  84.2944910  85.7539930  51.6018230  85.1895700  86.0924900  51.6236990
  84.3262540  85.0319340  50.9742510  77.9341070  81.1266980  49.8305230
  78.3715940  81.6696650  50.4862810  78.4188800  80.3013930  49.8401570
  75.1486870  83.9156010  57.2825490  75.4789880  83.0477070  57.0504130
  75.5777870  84.1214530  58.1130450  79.7448790  82.2465020  54.9427460
  79.4444330  82.1229990  55.8431370  79.6386280  81.3873610  54.5343190
  75.6377080  84.7826600  60.0207120  75.2008070  84.9627400  60.8531270
  76.2054760  85.5401220  59.8788840  75.4701510  77.2946830  56.3796000
  74.8150350  77.0258470  55.7355700  76.3079460  77.1851310  55.9297980
  89.9590900  81.0095580  62.4060590  89.1450740  81.4392740  62.6686380
  90.3665100  81.6213990  61.7929640  88.4191950  72.0888120  50.6014490
  88.8376830  71.9019100  49.7611150  88.1128010  71.2367170  50.9117420
  76.5077440  77.6799400  60.9199340  76.8750480  77.5926800  61.7995360
  75.9388260  76.9165950  60.8206200  76.0593440  74.5908490  64.8257760
  75.1649490  74.5575250  65.1651470  76.5990990  74.7895280  65.5909010
  89.7469370  71.3740210  66.7109510  90.6239550  71.3823610  67.0943510
  89.7590210  70.6371050  66.1001860  74.6839590  74.5045760  52.3221330
  73.7803670  74.7675960  52.1472990  75.1680210  74.7756930  51.5421290
  77.2266800  73.5611300  50.2315710  77.9358500  73.1394520  49.7462990
  76.5106740  73.6286530  49.5999060  76.8740960  69.6150630  49.2718360
  77.5969090  70.1559570  49.5899580  77.1465480  69.3414050  48.3959900
  76.5633150  68.8656820  59.1740980  77.2109340  68.3154200  58.7336140
  76.9834990  69.1199970  59.9956790  90.0166950  85.7614180  55.9328860
  90.6126020  85.4398750  55.2563280  90.2745100  85.2886000  56.7242130
  76.3165150  69.0212490  61.9166300  75.9679970  69.4776310  62.6824480
  75.9852850  68.1269620  61.9988730  77.9229520  82.1932090  66.0819490
  77.8799150  81.8225000  66.9633950  78.0540530  83.1309660  66.2221310
  81.6235550  83.7491680  61.6829210  81.3826910  84.0166240  60.7959730
  82.5638190  83.9197410  61.7380070  83.8289970  70.2124370  65.4385720
  83.7678860  70.8046200  66.1881130  84.7690350  70.1050330  65.2935980
  86.4664530  69.8694430  65.0778010  87.0804940  70.1873720  64.4159090
  87.0114090  69.3843020  65.6973870  76.9885790  68.5488690  65.1917070
  77.5368780  68.3676740  64.4283180  77.0541100  67.7582800  65.7273380
  77.7617550  85.1394340  63.2017270  77.1677870  85.0079040  63.9407310
  77.7541390  84.3032480  62.7359370  87.2072570  68.4326570  61.4047300
  86.3332410  68.7661680  61.2020230  87.0983320  67.9599750  62.2299170
  88.1144550  70.6397440  62.7889020  87.7857910  69.8249200  62.4090750
  89.0626850  70.5967250  62.6654710  90.5679160  86.4109480  59.7626590
  90.1082130  87.1625290  59.3884610  89.9391620  85.6915950  59.7041390
  77.3929780  82.5052720  62.1525310  76.6663840  81.8858010  62.0851260
  77.4538930  82.8993330  61.2823390  80.9974880  84.7197720  58.9374720
  81.5139900  84.1085080  58.4122980  81.6472260  85.2226500  59.4285730
  83.7370380  85.6106210  59.7643700  84.0248190  85.3560510  58.8876710
  84.2493600  85.0583570  60.3549270  84.9547390  69.3496410  60.3440210
  84.1719180  69.8241910  60.6236970  84.6610320  68.4451240  60.2353390
  89.5068460  70.0519510  58.3889300  89.9476550  69.9964610  57.5410900
  89.2376050  70.9677520  58.4599480  75.6759780  85.8227110  55.3622070
  75.5081820  85.1897790  56.0603960  74.8094290  86.0286510  55.0116260
  76.2987800  69.6543890  52.8653930  77.0567160  69.7672770  52.2917960
  75.8364970  70.4913090  52.8197360  82.8401610  71.7683160  55.8556240
  82.0276120  71.3940050  55.5152120  83.3443250  71.0128240  56.1577430
  87.3426590  68.4325610  57.0939310  87.9455960  69.0045820  57.5687830
  86.6019580  68.9965050  56.8713210  90.4861190  68.8347170  52.3679590
  90.6811820  69.7330620  52.6347020  89.6991060  68.6034250  52.8612540
  77.2822480  84.5160340  52.8072210  76.7570100  84.8968370  52.1034170
  77.2067060  85.1411110  53.5281920  78.6712950  70.1807940  51.4055900
  79.2005710  69.3937740  51.2763850  79.3041270  70.8599130  51.6391430
  80.8650790  69.9183080  54.4601290  80.2353530  69.2170390  54.6271420
  80.3255930  70.6787210  54.2434450  83.8042740  86.5322310  67.1311900
  84.7310050  86.2966580  67.1747860  83.7893170  87.3594310  66.6497930
  80.9906350  69.1967060  66.8953780  80.7090620  69.7000660  66.1314600
  81.3726050  68.3988810  66.5295910  79.8815450  86.4642720  51.6821460
  80.6134270  86.1802000  51.1345350  80.1409120  86.2256000  52.5720840
  79.0430240  82.5807450  51.6867790  78.4139120  83.0492550  52.2353620
  79.1578070  81.7356670  52.1213980  87.5921810  68.6120640  67.4734250
  87.4787260  68.9315250  68.3685770  88.4091550  69.0133150  67.1771530
  86.4979960  76.6313110  37.8368990  86.4174010  75.7167720  37.5660700
  86.0844380  77.1280180  37.1308700  84.6298000  78.4092130  39.7178260
  83.8540100  77.9292570  40.0076830  85.2810930  77.7297780  39.5434420
  78.6463830  78.7211940  40.5954020  77.8148710  78.4660650  40.9950530
  79.2544810  78.7922710  41.3311940  88.6505430  82.8152320  38.4977390
  88.1886960  82.0439560  38.8264560  89.4630980  82.8418390  39.0029840
  78.6265090  82.7552030  40.7912040  78.9293130  81.8649770  40.6122260
  79.3708680  83.3122250  40.5634290  77.0555780  73.6813830  34.3796410
  76.1672480  74.0229800  34.2776290  77.3396970  73.4814150  33.4877240
  75.0188790  76.2819480  40.2636110  75.5904900  75.5141680  40.2639750
  75.0190330  76.5808240  39.3542720  84.8768740  85.1010330  38.1181380
  84.2580180  85.5567830  37.5475820  85.7320520  85.2561790  37.7171080
  84.0706990  81.0849320  39.7248420  84.0015270  80.1439260  39.5637550
  84.8326850  81.1750730  40.2970990  76.2613660  71.6903840  42.0505040
  76.0816500  70.7929590  42.3307800  75.8593740  72.2375710  42.7251990
  85.1012160  73.8919700  39.9517350  85.4776980  73.0191580  39.8391020
  85.0031670  74.2278400  39.0607790  79.2317170  72.2645330  35.4134790
  79.3383920  73.1649060  35.7203550  78.3209530  72.2163300  35.1229440
  88.8836280  71.3870140  36.8845690  89.7045900  70.8966710  36.9271170
  88.9170360  71.9767800  37.6377530  76.8800330  74.1864340  40.6587380
  77.5610440  74.4502710  41.2774780  76.5648380  73.3465210  40.9925390
  81.0724900  75.2331700  39.7459970  81.5803120  75.7312670  40.3864990
  81.6038140  74.4566900  39.5699330  79.3561000  69.8730260  44.0123390
  79.3579440  70.3902650  43.2069290  78.5265310  69.3960440  43.9893320
  85.7432090  79.9849570  35.5113290  85.1249360  80.4499020  34.9476010
  86.2555340  80.6777050  35.9282800  80.6063850  79.5125440  42.1896890
  80.2733230  80.1394360  42.8317960  80.7830530  80.0387320  41.4098560
  89.1197760  73.3270520  39.6573230  88.4153330  73.6155410  40.2376340
  89.4809920  74.1370630  39.2972790  79.0376330  71.5840220  42.0193840
  79.3793140  72.4282270  41.7247710  78.0992140  71.7323960  42.1359180
  79.8182950  81.4806240  44.0046070  80.4356950  82.1557320  43.7230520
  78.9576070  81.8894220  43.9133570  75.1115290  80.6706100  32.8852920
  74.7343270  81.1593200  32.1537820  75.3688360  81.3431380  33.5159450
  82.7204220  69.0722490  38.3438430  83.0279200  68.5169380  37.6273930
  81.7904920  69.2066950  38.1611420  88.2719280  84.7889780  40.6345890
  88.2846440  84.3852070  39.7668150  87.7194500  85.5637070  40.5307320
  89.5664700  81.5106000  35.7236060  89.4561030  80.5680330  35.8485480
  89.5632950  81.8721640  36.6098820  87.6704720  79.6919620  41.9628500
  88.0873510  79.4779730  41.1281960  88.3944540  79.9492410  42.5337120
  85.1084980  77.1371320  35.0798550  84.1814260  77.0708700  35.3087020
  85.2609800  78.0751450  34.9653790  85.0954060  73.4088320  32.0765710
  84.1557730  73.5702280  32.1618170  85.4137320  74.1274000  31.5301700
  89.1382270  78.6991620  35.5833800  88.5194690  78.3611170  34.9360100
  89.1206720  78.0551380  36.2912990  88.5808830  74.8776160  42.9999610
  88.1680010  75.7029870  43.2539600  87.8484780  74.2921200  42.8075970
  80.7141620  77.6636060  37.8618280  80.3098620  76.9513310  37.3664180
  80.8004740  77.3189300  38.7506320  81.1823320  81.3503620  40.0257490
  80.8851610  80.7449090  39.3465270  82.1323140  81.3880930  39.9146850
  79.4270240  74.4379270  41.6417320  79.9784830  74.5474610  40.8670570
  79.9413750  74.8116870  42.3572550  89.2708930  84.9235490  43.6880590
  88.7939490  85.7307680  43.4953200  88.5870720  84.2713820  43.8406800
  80.2741750  81.0885310  46.6765290  79.3770280  81.3125280  46.9238690
  80.2994620  81.2120250  45.7276690  87.3146970  77.9378430  32.5906550
  87.7540250  77.1000860  32.4444370  88.0275390  78.5707830  32.6770690
  79.1012970  77.9598630  45.2522660  78.9620740  78.8321430  45.6210060
  78.2194330  77.6171440  45.1070600  85.4242350  82.8774500  36.5587790
  85.8638260  83.6198830  36.1443180  85.3629240  83.1201070  37.4826750
  80.8993320  83.9020330  47.4607810  80.8708750  84.3063280  46.5936240
  80.7358290  82.9730690  47.2979410  77.4146250  76.5581040  35.3624930
  77.2943850  77.2843130  34.7506200  77.1047140  75.7883950  34.8852840
  75.0531620  79.7296180  41.1693570  75.1312040  79.8644950  40.2249290
  75.6673300  79.0212070  41.3621690  76.2979250  81.4296370  37.5799750
  75.8907330  81.5710960  36.7253350  77.1892260  81.1456530  37.3770960
  86.1158130  85.5788280  44.4866800  86.6302800  85.4896290  45.2889230
  85.2727210  85.9247980  44.7794710  88.0912530  85.8643620  33.9150800
  87.9313670  85.5746560  34.8132630  87.9259240  85.0883750  33.3796030
  80.5700910  85.6442150  35.6922420  80.3943390  84.7277690  35.4790220
  79.7156650  86.0029440  35.9320220  87.7938660  83.3731180  32.4748800
  87.1003820  83.3708470  31.8151080  88.5361520  82.9490500  32.0442970
  87.3588590  84.9993890  36.5497290  87.8145540  84.2183270  36.8635910
  87.6981110  85.7100710  37.0938470  75.1091140  80.7710350  43.7088030
  75.2722180  80.3015710  42.8907400  75.5743590  80.2633910  44.3736870
  79.8809910  69.9016110  38.7448600  79.4378060  70.6825650  38.4133120
  80.4394900  70.2246000  39.4519540  84.1679720  72.7684630  44.3483920
  83.7059090  72.9767650  45.1603860  83.7657830  71.9543980  44.0454590
  89.1684230  73.9893580  45.4780580  88.3177820  73.6899330  45.7989650
  89.0086020  74.2335590  44.5664400  86.2633940  75.4895330  47.5779370
  86.5887350  74.6559080  47.2381600  87.0514270  76.0123850  47.7257700
  82.9968730  69.5226810  33.6254430  82.3722910  69.5186680  34.3507740
  82.9098850  68.6557770  33.2290400  81.9185810  70.4463440  40.6038200
  82.2158140  71.3526270  40.5230220  82.4671370  69.9582220  39.9897770
  79.6724130  75.0249680  36.4729850  79.4465050  74.8086850  37.3776470
  78.8916660  75.4578140  36.1275820  86.9021890  75.0313050  35.0720500
  86.3030780  75.7548850  34.8884120  87.4501500  74.9689830  34.2896950
  82.1123340  75.9235260  47.1390120  82.0166940  74.9829990  46.9890520
  82.9555320  76.1450330  46.7438190  85.5086760  73.6676590  37.1023780
  85.9016330  73.9848790  36.2892470  85.8703610  72.7888470  37.2168300
  77.2433880  72.3348930  45.2923900  76.8497270  73.1824140  45.4996680
  76.5552280  71.6975300  45.4832540  83.8178930  72.4183900  48.3620640
  83.1277250  72.2256100  48.9966730  84.5611230  72.7018540  48.8944940
  74.5450930  70.2577390  39.3253980  74.2563980  70.8280250  40.0378960
  75.2896690  69.7781840  39.6885210  74.7321160  74.1997510  30.5356700
  74.6495830  75.1428270  30.6771690  74.3804220  74.0572420  29.6569050
  86.0941900  76.2582340  41.1974560  85.3623020  76.7669150  41.5464660
  85.6966240  75.4412320  40.8963340  82.5319290  72.9336540  39.6027050
  82.5355350  72.4926490  38.7531590  83.4270410  73.2553870  39.7098870
  78.3821670  72.8163030  38.5621260  78.0421720  73.2938260  39.3188310
  77.6198990  72.3628150  38.2022360  82.5939440  73.9348620  32.5933810
  82.7152260  73.8935100  33.5419630  82.2087950  74.7972770  32.4380540
  86.5567810  71.7116020  40.6097500  86.5740550  72.1624670  41.4539350
  86.3083390  70.8121660  40.8230940  81.6060940  76.2449760  31.9917110
  81.0377840  75.7968010  31.3653020  82.3149940  76.6042540  31.4582260
  89.9838560  69.1248200  46.4483880  90.3084330  68.3937860  46.9741860
  90.0195070  68.8061840  45.5464870  76.6830120  80.1461780  45.8683840
  76.2984910  79.5055450  46.4666800  76.9942310  80.8497900  46.4378570
  82.8327260  76.9938320  41.3492460  83.1997390  76.5196890  42.0953800
  82.6432320  77.8679890  41.6900800  75.6967750  71.7382010  37.4785930
  75.4114670  71.3737680  38.3164550  75.6346610  71.0062470  36.8649070
  80.6226630  76.0346960  43.6676670  80.3183700  76.9138940  43.8927030
  81.5773090  76.0946750  43.7034110  79.1508420  80.2407950  34.2643520
  78.3770680  79.7005570  34.1042240  79.8803050  79.7214560  33.9261280
  89.9096400  79.2373310  40.0569910  90.6295520  79.7328600  39.6666020
  89.7078220  78.5591200  39.4123780  85.3706340  70.6311270  34.1999300
  84.5570950  70.1324440  34.1244610  85.1768290  71.4709520  33.7835650
  85.2915200  79.3082370  45.9438910  85.2252510  78.3878040  45.6896500
  84.6620340  79.4057810  46.6583550  88.0854730  75.0030920  32.4961460
  88.9734350  75.3148150  32.3212800  88.0559820  74.1303170  32.1042040
  79.1945820  79.9088330  37.9022330  79.7124490  79.1056590  37.8479220
  78.7429840  79.8467470  38.7439160  84.0815320  81.1754610  33.1749630
  84.4231020  81.9196840  32.6792950  83.2528030  81.4885730  33.5374460
  76.6790360  76.8749700  44.8148030  76.3205300  77.5403550  45.4021370
  76.3844920  76.0433250  45.1860650  79.8803480  77.3333940  47.6987580
  79.5803620  77.4791120  46.8015400  80.6514720  76.7739230  47.6060970
  85.2231930  82.1302940  45.6942710  85.2376470  81.1983900  45.4761620
  84.5157030  82.2162700  46.3332480  86.9642730  80.4970450  38.5395140
  87.3166550  79.8998580  37.8796510  86.0805060  80.1714680  38.7103390
  83.0506010  81.2568140  35.9465550  83.7377140  81.8037350  36.3273140
  82.2638430  81.8008870  35.9815160  75.1898410  76.8740960  31.4382630
  76.0593260  77.1565760  31.7218550  74.6988730  77.6876830  31.3231440
  82.3533220  78.2614170  35.5590910  82.8096000  79.0719420  35.7851100
  82.0021430  77.9437310  36.3909400  84.6565830  83.7720510  42.7883210
  85.3008050  83.9779890  43.4656630  85.0195270  83.0108910  42.3354060
  78.2545000  68.6051820  36.0313430  78.1259630  68.5969720  36.9798350
  77.4307020  68.9434910  35.6804440  85.9297910  81.7752860  41.5060660
  86.5720140  81.0746020  41.6192830  86.4547260  82.5551300  41.3257550
  89.7753630  82.0601480  31.2299800  89.5491210  81.3431920  31.8224440
  89.3849830  81.8113920  30.3921550  87.7035530  82.5747760  44.7096720
  88.0391770  83.1614450  45.3874640  86.7835870  82.4440470  44.9394510
  75.5569660  86.0868340  32.0044260  75.9167300  86.6857680  31.3501530
  75.4162000  86.6328230  32.7779290  75.2538930  70.3642940  45.4920130
  74.5397450  70.5639860  46.0972740  75.6733970  69.5882510  45.8634930
  89.3569880  79.9773420  32.8913960  89.0691580  80.4386110  33.6791840
  90.1522050  79.5171190  33.1598180  75.5411520  84.3523200  46.4786660
  75.6502640  83.4117940  46.3382050  74.8892080  84.6177950  45.8300390
  83.5324110  82.6239090  47.8784780  83.2120980  81.9048330  48.4230470
  82.8582470  83.2994160  47.9520840  81.5738280  83.4699540  32.8217930
  81.5648380  84.2029230  32.2062440  80.6536640  83.2231120  32.9144890
  77.1744920  78.6914430  33.5664690  76.5672870  79.4313330  33.5759990
  77.6494270  78.7813790  32.7402890  86.7477710  72.8565250  43.2421580
  87.1158530  72.0360460  43.5701150  85.8875910  72.9167140  43.6577230
  90.1139740  71.8122190  34.0509140  89.4852900  71.9167860  33.3367370
  89.6191660  72.0318970  34.8403020  84.5597880  83.5327780  31.4843120
  84.6609860  83.3291770  30.5545100  83.6599620  83.2786060  31.6890900
  82.0823770  74.0908140  35.4667020  81.3739920  74.5594480  35.9080630
  82.3668250  73.4330150  36.1012210  83.7079700  75.5104840  43.4659550
  84.2064950  75.9850660  44.1311400  83.8502650  74.5868360  43.6729580
  86.1139200  70.8158800  36.9062810  85.9906980  70.8344930  35.9572320
  87.0623760  70.8637740  37.0261210  83.2015990  86.0514100  36.1790790
  83.4557490  86.0135490  35.2570160  82.2528470  85.9247430  36.1719040
  80.2858790  72.3993220  32.8417730  81.1349320  72.8363370  32.7757920
  79.9190060  72.7113480  33.6689790  89.2068570  76.9705980  37.7549300
  88.2658710  76.9856210  37.9296990  89.5212640  76.1841940  38.2009600
  79.1850210  78.6525580  31.3153260  79.9513480  78.5406940  31.8778690
  79.2624900  77.9563550  30.6630030  77.8796970  76.0850650  31.9986150
  77.9600560  75.1378160  32.1103550  78.7716720  76.4157530  32.1046810
  78.6811680  86.2346040  39.1020690  79.4174160  85.6861500  39.3729260
  79.0652600  87.1002050  38.9626680  75.5657160  82.3019610  34.9762200
  74.6396940  82.5440750  34.9667610  76.0313590  83.1293870  34.8546950
  77.6869960  85.4192110  48.2906270  78.4882690  85.7404160  48.7041670
  77.1721780  85.0587690  49.0126180  81.7913990  85.4076350  30.9246260
  82.5842600  85.6965180  30.4728050  81.2718340  84.9768520  30.2458740
  86.5234590  81.5271980  48.2381680  85.9172750  81.5503580  47.4977430
  86.2188700  80.7955020  48.7748930  87.9534960  85.2552270  46.8491090
  88.9056710  85.1710290  46.7991330  87.8063180  85.9193980  47.5224880
  75.4067770  77.9065570  47.2342320  75.9106790  77.3272850  47.8058550
  74.6675190  78.1905800  47.7718690  82.3091390  80.6279760  30.7888610
  82.2042030  80.0132110  31.5149990  82.1415610  80.1045650  30.0051620
  82.4605710  79.3136560  46.7677840  81.6951380  79.8821560  46.6832510
  82.6421670  79.0212770  45.8746070  85.5494120  79.6899790  31.3930600
  85.0004220  80.1369090  32.0373340  86.1713380  79.1849040  31.9168270
  89.6029060  81.0441890  47.3252860  90.3438530  81.3817650  46.8220320
  88.8401740  81.2133950  46.7722630  77.4390850  76.0495160  48.1292390
  77.4796190  75.7509030  49.0377620  78.2936350  76.4502770  47.9699910
  81.2169240  78.6490710  33.2895900  81.6385660  78.4830580  34.1327290
  81.3420080  77.8390940  32.7951040  79.3796660  74.6287260  46.0966880
  78.8493120  74.1378210  45.4690220  80.0484730  75.0571460  45.5624810
  83.7296880  77.6728320  30.5373000  84.2502540  76.9577340  30.1714150
  84.3765280  78.3114190  30.8373510  88.2774720  79.0956720  45.8608070
  88.6915740  79.2501800  46.7098490  87.3425720  79.2211940  46.0233850
  88.7496890  76.4352880  47.8647220  89.3317660  75.6805200  47.7767700
  88.9258660  76.9660320  47.0878700  79.8668960  71.5949630  46.1764170
  79.7725830  70.9770380  45.4515040  79.2866350  72.3215920  45.9494080
  82.6330400  70.1522870  43.2091560  82.1847700  70.1747130  42.3637110
  81.9995600  69.7541890  43.8061860  83.0389950  79.0477200  43.8304000
  83.4578060  79.8909930  43.6580240  82.1198580  79.1849240  43.6010780
  85.3753850  76.7793380  45.2141840  85.4950060  76.1834520  45.9536680
  86.2347850  76.8163070  44.7943140  87.7141750  77.3330570  43.7904350
  87.1876970  77.8573190  43.1869490  88.0573090  77.9657960  44.4214080
  80.1128140  74.7223940  30.2354060  79.9117200  73.8591300  30.5967400
  79.9420190  74.6357300  29.2975660  80.8897370  85.3530210  44.9461730
  80.3518460  86.0776270  44.6270430  81.1431330  84.8760550  44.1559070
  82.1422620  73.3214730  46.4717660  82.7322310  73.0130580  47.1595480
  81.3242860  72.8494480  46.6277560  86.9616050  72.9380540  46.7050680
  86.2731570  72.2762080  46.6400670  87.6822070  72.4918810  47.1499140
  87.5916450  69.5332170  32.7640940  87.8718740  68.6900070  33.1200360
  86.8182180  69.7655280  33.2779690  78.9110940  71.8224560  30.2231940
  79.2136840  71.8291990  29.3151090  79.6505530  71.4722420  30.7199600
  83.7459580  86.5881420  45.2048380  83.6718280  87.4916560  45.5120750
  82.8438420  86.2693320  45.1770450  82.1295870  70.7659180  31.2088140
  81.7817870  70.0883170  30.6290590  82.3308640  70.3048690  32.0231530
  84.2944910  85.7539930  32.8274740  85.1895700  86.0924900  32.8493500
  84.3262540  85.0319340  32.1999020  77.9341070  81.1266980  31.0561740
  78.3715940  81.6696650  31.7119320  78.4188800  80.3013930  31.0658080
  75.1486870  83.9156010  38.5082000  75.4789880  83.0477070  38.2760640
  75.5777870  84.1214530  39.3386960  79.7448790  82.2465020  36.1683970
  79.4444330  82.1229990  37.0687880  79.6386280  81.3873610  35.7599700
  75.6377080  84.7826600  41.2463630  75.2008070  84.9627400  42.0787780
  76.2054760  85.5401220  41.1045350  75.4701510  77.2946830  37.6052510
  74.8150350  77.0258470  36.9612210  76.3079460  77.1851310  37.1554490
  89.9590900  81.0095580  43.6317100  89.1450740  81.4392740  43.8942890
  90.3665100  81.6213990  43.0186150  88.4191950  72.0888120  31.8271000
  88.8376830  71.9019100  30.9867660  88.1128010  71.2367170  32.1373930
  76.5077440  77.6799400  42.1455850  76.8750480  77.5926800  43.0251870
  75.9388260  76.9165950  42.0462710  76.0593440  74.5908490  46.0514270
  75.1649490  74.5575250  46.3907980  76.5990990  74.7895280  46.8165520
  89.7469370  71.3740210  47.9366020  90.6239550  71.3823610  48.3200020
  89.7590210  70.6371050  47.3258370  74.6839590  74.5045760  33.5477840
  73.7803670  74.7675960  33.3729500  75.1680210  74.7756930  32.7677800
  77.2266800  73.5611300  31.4572220  77.9358500  73.1394520  30.9719500
  76.5106740  73.6286530  30.8255570  76.8740960  69.6150630  30.4974870
  77.5969090  70.1559570  30.8156090  77.1465480  69.3414050  29.6216410
  76.5633150  68.8656820  40.3997490  77.2109340  68.3154200  39.9592650
  76.9834990  69.1199970  41.2213300  90.0166950  85.7614180  37.1585370
  90.6126020  85.4398750  36.4819790  90.2745100  85.2886000  37.9498640
  76.3165150  69.0212490  43.1422810  75.9679970  69.4776310  43.9080990
  75.9852850  68.1269620  43.2245240  77.9229520  82.1932090  47.3076000
  77.8799150  81.8225000  48.1890460  78.0540530  83.1309660  47.4477820
  81.6235550  83.7491680  42.9085720  81.3826910  84.0166240  42.0216240
  82.5638190  83.9197410  42.9636580  83.8289970  70.2124370  46.6642230
  83.7678860  70.8046200  47.4137640  84.7690350  70.1050330  46.5192490
  86.4664530  69.8694430  46.3034520  87.0804940  70.1873720  45.6415600
  87.0114090  69.3843020  46.9230380  76.9885790  68.5488690  46.4173580
  77.5368780  68.3676740  45.6539690  77.0541100  67.7582800  46.9529890
  77.7617550  85.1394340  44.4273780  77.1677870  85.0079040  45.1663820
  77.7541390  84.3032480  43.9615880  87.2072570  68.4326570  42.6303810
  86.3332410  68.7661680  42.4276740  87.0983320  67.9599750  43.4555680
  88.1144550  70.6397440  44.0145530  87.7857910  69.8249200  43.6347260
  89.0626850  70.5967250  43.8911220  90.5679160  86.4109480  40.9883100
  90.1082130  87.1625290  40.6141120  89.9391620  85.6915950  40.9297900
  77.3929780  82.5052720  43.3781820  76.6663840  81.8858010  43.3107770
  77.4538930  82.8993330  42.5079900  80.9974880  84.7197720  40.1631230
  81.5139900  84.1085080  39.6379490  81.6472260  85.2226500  40.6542240
  83.7370380  85.6106210  40.9900210  84.0248190  85.3560510  40.1133220
  84.2493600  85.0583570  41.5805780  84.9547390  69.3496410  41.5696720
  84.1719180  69.8241910  41.8493480  84.6610320  68.4451240  41.4609900
  89.5068460  70.0519510  39.6145810  89.9476550  69.9964610  38.7667410
  89.2376050  70.9677520  39.6855990  75.6759780  85.8227110  36.5878580
  75.5081820  85.1897790  37.2860470  74.8094290  86.0286510  36.2372770
  76.2987800  69.6543890  34.0910440  77.0567160  69.7672770  33.5174470
  75.8364970  70.4913090  34.0453870  82.8401610  71.7683160  37.0812750
  82.0276120  71.3940050  36.7408630  83.3443250  71.0128240  37.3833940
  87.3426590  68.4325610  38.3195820  87.9455960  69.0045820  38.7944340
  86.6019580  68.9965050  38.0969720  90.4861190  68.8347170  33.5936100
  90.6811820  69.7330620  33.8603530  89.6991060  68.6034250  34.0869050
  77.2822480  84.5160340  34.0328720  76.7570100  84.8968370  33.3290680
  77.2067060  85.1411110  34.7538430  78.6712950  70.1807940  32.6312410
  79.2005710  69.3937740  32.5020360  79.3041270  70.8599130  32.8647940
  80.8650790  69.9183080  35.6857800  80.2353530  69.2170390  35.8527930
  80.3255930  70.6787210  35.4690960  83.8042740  86.5322310  48.3568410
  84.7310050  86.2966580  48.4004370  83.7893170  87.3594310  47.8754440
  80.9906350  69.1967060  48.1210290  80.7090620  69.7000660  47.3571110
  81.3726050  68.3988810  47.7552420  79.8815450  86.4642720  32.9077970
  80.6134270  86.1802000  32.3601860  80.1409120  86.2256000  33.7977350
  79.0430240  82.5807450  32.9124300  78.4139120  83.0492550  33.4610130
  79.1578070  81.7356670  33.3470490  87.5921810  68.6120640  48.6990760
  87.4787260  68.9315250  49.5942280  88.4091550  69.0133150  48.4028040
  86.4979960  76.6313110  19.0625500  86.4174010  75.7167720  18.7917210
  86.0844380  77.1280180  18.3565210  84.6298000  78.4092130  20.9434770
  83.8540100  77.9292570  21.2333340  85.2810930  77.7297780  20.7690930
  78.6463830  78.7211940  21.8210530  77.8148710  78.4660650  22.2207040
  79.2544810  78.7922710  22.5568450  88.6505430  82.8152320  19.7233900
  88.1886960  82.0439560  20.0521070  89.4630980  82.8418390  20.2286350
  78.6265090  82.7552030  22.0168550  78.9293130  81.8649770  21.8378770
  79.3708680  83.3122250  21.7890800  77.0555780  73.6813830  15.6052920
  76.1672480  74.0229800  15.5032800  77.3396970  73.4814150  14.7133750
  75.0188790  76.2819480  21.4892620  75.5904900  75.5141680  21.4896260
  75.0190330  76.5808240  20.5799230  84.8768740  85.1010330  19.3437890
  84.2580180  85.5567830  18.7732330  85.7320520  85.2561790  18.9427590
  84.0706990  81.0849320  20.9504930  84.0015270  80.1439260  20.7894060
  84.8326850  81.1750730  21.5227500  76.2613660  71.6903840  23.2761550
  76.0816500  70.7929590  23.5564310  75.8593740  72.2375710  23.9508500
  85.1012160  73.8919700  21.1773860  85.4776980  73.0191580  21.0647530
  85.0031670  74.2278400  20.2864300  79.2317170  72.2645330  16.6391300
  79.3383920  73.1649060  16.9460060  78.3209530  72.2163300  16.3485950
  88.8836280  71.3870140  18.1102200  89.7045900  70.8966710  18.1527680
  88.9170360  71.9767800  18.8634040  76.8800330  74.1864340  21.8843890
  77.5610440  74.4502710  22.5031290  76.5648380  73.3465210  22.2181900
  81.0724900  75.2331700  20.9716480  81.5803120  75.7312670  21.6121500
  81.6038140  74.4566900  20.7955840  79.3561000  69.8730260  25.2379900
  79.3579440  70.3902650  24.4325800  78.5265310  69.3960440  25.2149830
  85.7432090  79.9849570  16.7369800  85.1249360  80.4499020  16.1732520
  86.2555340  80.6777050  17.1539310  80.6063850  79.5125440  23.4153400
  80.2733230  80.1394360  24.0574470  80.7830530  80.0387320  22.6355070
  89.1197760  73.3270520  20.8829740  88.4153330  73.6155410  21.4632850
  89.4809920  74.1370630  20.5229300  79.0376330  71.5840220  23.2450350
  79.3793140  72.4282270  22.9504220  78.0992140  71.7323960  23.3615690
  79.8182950  81.4806240  25.2302580  80.4356950  82.1557320  24.9487030
  78.9576070  81.8894220  25.1390080  75.1115290  80.6706100  14.1109430
  74.7343270  81.1593200  13.3794330  75.3688360  81.3431380  14.7415960
  82.7204220  69.0722490  19.5694940  83.0279200  68.5169380  18.8530440
  81.7904920  69.2066950  19.3867930  88.2719280  84.7889780  21.8602400
  88.2846440  84.3852070  20.9924660  87.7194500  85.5637070  21.7563830
  89.5664700  81.5106000  16.9492570  89.4561030  80.5680330  17.0741990
  89.5632950  81.8721640  17.8355330  87.6704720  79.6919620  23.1885010
  88.0873510  79.4779730  22.3538470  88.3944540  79.9492410  23.7593630
  85.1084980  77.1371320  16.3055060  84.1814260  77.0708700  16.5343530
  85.2609800  78.0751450  16.1910300  85.0954060  73.4088320  13.3022220
  84.1557730  73.5702280  13.3874680  85.4137320  74.1274000  12.7558210
  89.1382270  78.6991620  16.8090310  88.5194690  78.3611170  16.1616610
  89.1206720  78.0551380  17.5169500  88.5808830  74.8776160  24.2256120
  88.1680010  75.7029870  24.4796110  87.8484780  74.2921200  24.0332480
  80.7141620  77.6636060  19.0874790  80.3098620  76.9513310  18.5920690
  80.8004740  77.3189300  19.9762830  81.1823320  81.3503620  21.2514000
  80.8851610  80.7449090  20.5721780  82.1323140  81.3880930  21.1403360
  79.4270240  74.4379270  22.8673830  79.9784830  74.5474610  22.0927080
  79.9413750  74.8116870  23.5829060  89.2708930  84.9235490  24.9137100
  88.7939490  85.7307680  24.7209710  88.5870720  84.2713820  25.0663310
  80.2741750  81.0885310  27.9021800  79.3770280  81.3125280  28.1495200
  80.2994620  81.2120250  26.9533200  87.3146970  77.9378430  13.8163060
  87.7540250  77.1000860  13.6700880  88.0275390  78.5707830  13.9027200
  79.1012970  77.9598630  26.4779170  78.9620740  78.8321430  26.8466570
  78.2194330  77.6171440  26.3327110  85.4242350  82.8774500  17.7844300
  85.8638260  83.6198830  17.3699690  85.3629240  83.1201070  18.7083260
  80.8993320  83.9020330  28.6864320  80.8708750  84.3063280  27.8192750
  80.7358290  82.9730690  28.5235920  77.4146250  76.5581040  16.5881440
  77.2943850  77.2843130  15.9762710  77.1047140  75.7883950  16.1109350
  75.0531620  79.7296180  22.3950080  75.1312040  79.8644950  21.4505800
  75.6673300  79.0212070  22.5878200  76.2979250  81.4296370  18.8056260
  75.8907330  81.5710960  17.9509860  77.1892260  81.1456530  18.6027470
  86.1158130  85.5788280  25.7123310  86.6302800  85.4896290  26.5145740
  85.2727210  85.9247980  26.0051220  88.0912530  85.8643620  15.1407310
  87.9313670  85.5746560  16.0389140  87.9259240  85.0883750  14.6052540
  80.5700910  85.6442150  16.9178930  80.3943390  84.7277690  16.7046730
  79.7156650  86.0029440  17.1576730  87.7938660  83.3731180  13.7005310
  87.1003820  83.3708470  13.0407590  88.5361520  82.9490500  13.2699480
  87.3588590  84.9993890  17.7753800  87.8145540  84.2183270  18.0892420
  87.6981110  85.7100710  18.3194980  75.1091140  80.7710350  24.9344540
  75.2722180  80.3015710  24.1163910  75.5743590  80.2633910  25.5993380
  79.8809910  69.9016110  19.9705110  79.4378060  70.6825650  19.6389630
  80.4394900  70.2246000  20.6776050  84.1679720  72.7684630  25.5740430
  83.7059090  72.9767650  26.3860370  83.7657830  71.9543980  25.2711100
  89.1684230  73.9893580  26.7037090  88.3177820  73.6899330  27.0246160
  89.0086020  74.2335590  25.7920910  86.2633940  75.4895330  28.8035880
  86.5887350  74.6559080  28.4638110  87.0514270  76.0123850  28.9514210
  82.9968730  69.5226810  14.8510940  82.3722910  69.5186680  15.5764250
  82.9098850  68.6557770  14.4546910  81.9185810  70.4463440  21.8294710
  82.2158140  71.3526270  21.7486730  82.4671370  69.9582220  21.2154280
  79.6724130  75.0249680  17.6986360  79.4465050  74.8086850  18.6032980
  78.8916660  75.4578140  17.3532330  86.9021890  75.0313050  16.2977010
  86.3030780  75.7548850  16.1140630  87.4501500  74.9689830  15.5153460
  82.1123340  75.9235260  28.3646630  82.0166940  74.9829990  28.2147030
  82.9555320  76.1450330  27.9694700  85.5086760  73.6676590  18.3280290
  85.9016330  73.9848790  17.5148980  85.8703610  72.7888470  18.4424810
  77.2433880  72.3348930  26.5180410  76.8497270  73.1824140  26.7253190
  76.5552280  71.6975300  26.7089050  83.8178930  72.4183900  29.5877150
  83.1277250  72.2256100  30.2223240  84.5611230  72.7018540  30.1201450
  74.5450930  70.2577390  20.5510490  74.2563980  70.8280250  21.2635470
  75.2896690  69.7781840  20.9141720  74.7321160  74.1997510  11.7613210
  74.6495830  75.1428270  11.9028200  74.3804220  74.0572420  10.8825560
  86.0941900  76.2582340  22.4231070  85.3623020  76.7669150  22.7721170
  85.6966240  75.4412320  22.1219850  82.5319290  72.9336540  20.8283560
  82.5355350  72.4926490  19.9788100  83.4270410  73.2553870  20.9355380
  78.3821670  72.8163030  19.7877770  78.0421720  73.2938260  20.5444820
  77.6198990  72.3628150  19.4278870  82.5939440  73.9348620  13.8190320
  82.7152260  73.8935100  14.7676140  82.2087950  74.7972770  13.6637050
  86.5567810  71.7116020  21.8354010  86.5740550  72.1624670  22.6795860
  86.3083390  70.8121660  22.0487450  81.6060940  76.2449760  13.2173620
  81.0377840  75.7968010  12.5909530  82.3149940  76.6042540  12.6838770
  89.9838560  69.1248200  27.6740390  90.3084330  68.3937860  28.1998370
  90.0195070  68.8061840  26.7721380  76.6830120  80.1461780  27.0940350
  76.2984910  79.5055450  27.6923310  76.9942310  80.8497900  27.6635080
  82.8327260  76.9938320  22.5748970  83.1997390  76.5196890  23.3210310
  82.6432320  77.8679890  22.9157310  75.6967750  71.7382010  18.7042440
  75.4114670  71.3737680  19.5421060  75.6346610  71.0062470  18.0905580
  80.6226630  76.0346960  24.8933180  80.3183700  76.9138940  25.1183540
  81.5773090  76.0946750  24.9290620  79.1508420  80.2407950  15.4900030
  78.3770680  79.7005570  15.3298750  79.8803050  79.7214560  15.1517790
  89.9096400  79.2373310  21.2826420  90.6295520  79.7328600  20.8922530
  89.7078220  78.5591200  20.6380290  85.3706340  70.6311270  15.4255810
  84.5570950  70.1324440  15.3501120  85.1768290  71.4709520  15.0092160
  85.2915200  79.3082370  27.1695420  85.2252510  78.3878040  26.9153010
  84.6620340  79.4057810  27.8840060  88.0854730  75.0030920  13.7217970
  88.9734350  75.3148150  13.5469310  88.0559820  74.1303170  13.3298550
  79.1945820  79.9088330  19.1278840  79.7124490  79.1056590  19.0735730
  78.7429840  79.8467470  19.9695670  84.0815320  81.1754610  14.4006140
  84.4231020  81.9196840  13.9049460  83.2528030  81.4885730  14.7630970
  76.6790360  76.8749700  26.0404540  76.3205300  77.5403550  26.6277880
  76.3844920  76.0433250  26.4117160  79.8803480  77.3333940  28.9244090
  79.5803620  77.4791120  28.0271910  80.6514720  76.7739230  28.8317480
  85.2231930  82.1302940  26.9199220  85.2376470  81.1983900  26.7018130
  84.5157030  82.2162700  27.5588990  86.9642730  80.4970450  19.7651650
  87.3166550  79.8998580  19.1053020  86.0805060  80.1714680  19.9359900
  83.0506010  81.2568140  17.1722060  83.7377140  81.8037350  17.5529650
  82.2638430  81.8008870  17.2071670  75.1898410  76.8740960  12.6639140
  76.0593260  77.1565760  12.9475060  74.6988730  77.6876830  12.5487950
  82.3533220  78.2614170  16.7847420  82.8096000  79.0719420  17.0107610
  82.0021430  77.9437310  17.6165910  84.6565830  83.7720510  24.0139720
  85.3008050  83.9779890  24.6913140  85.0195270  83.0108910  23.5610570
  78.2545000  68.6051820  17.2569940  78.1259630  68.5969720  18.2054860
  77.4307020  68.9434910  16.9060950  85.9297910  81.7752860  22.7317170
  86.5720140  81.0746020  22.8449340  86.4547260  82.5551300  22.5514060
  89.7753630  82.0601480  12.4556310  89.5491210  81.3431920  13.0480950
  89.3849830  81.8113920  11.6178060  87.7035530  82.5747760  25.9353230
  88.0391770  83.1614450  26.6131150  86.7835870  82.4440470  26.1651020
  75.5569660  86.0868340  13.2300770  75.9167300  86.6857680  12.5758040
  75.4162000  86.6328230  14.0035800  75.2538930  70.3642940  26.7176640
  74.5397450  70.5639860  27.3229250  75.6733970  69.5882510  27.0891440
  89.3569880  79.9773420  14.1170470  89.0691580  80.4386110  14.9048350
  90.1522050  79.5171190  14.3854690  75.5411520  84.3523200  27.7043170
  75.6502640  83.4117940  27.5638560  74.8892080  84.6177950  27.0556900
  83.5324110  82.6239090  29.1041290  83.2120980  81.9048330  29.6486980
  82.8582470  83.2994160  29.1777350  81.5738280  83.4699540  14.0474440
  81.5648380  84.2029230  13.4318950  80.6536640  83.2231120  14.1401400
  77.1744920  78.6914430  14.7921200  76.5672870  79.4313330  14.8016500
  77.6494270  78.7813790  13.9659400  86.7477710  72.8565250  24.4678090
  87.1158530  72.0360460  24.7957660  85.8875910  72.9167140  24.8833740
  90.1139740  71.8122190  15.2765650  89.4852900  71.9167860  14.5623880
  89.6191660  72.0318970  16.0659530  84.5597880  83.5327780  12.7099630
  84.6609860  83.3291770  11.7801610  83.6599620  83.2786060  12.9147410
  82.0823770  74.0908140  16.6923530  81.3739920  74.5594480  17.1337140
  82.3668250  73.4330150  17.3268720  83.7079700  75.5104840  24.6916060
  84.2064950  75.9850660  25.3567910  83.8502650  74.5868360  24.8986090
  86.1139200  70.8158800  18.1319320  85.9906980  70.8344930  17.1828830
  87.0623760  70.8637740  18.2517720  83.2015990  86.0514100  17.4047300
  83.4557490  86.0135490  16.4826670  82.2528470  85.9247430  17.3975550
  80.2858790  72.3993220  14.0674240  81.1349320  72.8363370  14.0014430
  79.9190060  72.7113480  14.8946300  89.2068570  76.9705980  18.9805810
  88.2658710  76.9856210  19.1553500  89.5212640  76.1841940  19.4266110
  79.1850210  78.6525580  12.5409770  79.9513480  78.5406940  13.1035200
  79.2624900  77.9563550  11.8886540  77.8796970  76.0850650  13.2242660
  77.9600560  75.1378160  13.3360060  78.7716720  76.4157530  13.3303320
  78.6811680  86.2346040  20.3277200  79.4174160  85.6861500  20.5985770
  79.0652600  87.1002050  20.1883190  75.5657160  82.3019610  16.2018710
  74.6396940  82.5440750  16.1924120  76.0313590  83.1293870  16.0803460
  77.6869960  85.4192110  29.5162780  78.4882690  85.7404160  29.9298180
  77.1721780  85.0587690  30.2382690  81.7913990  85.4076350  12.1502770
  82.5842600  85.6965180  11.6984560  81.2718340  84.9768520  11.4715250
  86.5234590  81.5271980  29.4638190  85.9172750  81.5503580  28.7233940
  86.2188700  80.7955020  30.0005440  87.9534960  85.2552270  28.0747600
  88.9056710  85.1710290  28.0247840  87.8063180  85.9193980  28.7481390
  75.4067770  77.9065570  28.4598830  75.9106790  77.3272850  29.0315060
  74.6675190  78.1905800  28.9975200  82.3091390  80.6279760  12.0145120
  82.2042030  80.0132110  12.7406500  82.1415610  80.1045650  11.2308130
  82.4605710  79.3136560  27.9934350  81.6951380  79.8821560  27.9089020
  82.6421670  79.0212770  27.1002580  85.5494120  79.6899790  12.6187110
  85.0004220  80.1369090  13.2629850  86.1713380  79.1849040  13.1424780
  89.6029060  81.0441890  28.5509370  90.3438530  81.3817650  28.0476830
  88.8401740  81.2133950  27.9979140  77.4390850  76.0495160  29.3548900
  77.4796190  75.7509030  30.2634130  78.2936350  76.4502770  29.1956420
  81.2169240  78.6490710  14.5152410  81.6385660  78.4830580  15.3583800
  81.3420080  77.8390940  14.0207550  79.3796660  74.6287260  27.3223390
  78.8493120  74.1378210  26.6946730  80.0484730  75.0571460  26.7881320
  83.7296880  77.6728320  11.7629510  84.2502540  76.9577340  11.3970660
  84.3765280  78.3114190  12.0630020  88.2774720  79.0956720  27.0864580
  88.6915740  79.2501800  27.9355000  87.3425720  79.2211940  27.2490360
  88.7496890  76.4352880  29.0903730  89.3317660  75.6805200  29.0024210
  88.9258660  76.9660320  28.3135210  79.8668960  71.5949630  27.4020680
  79.7725830  70.9770380  26.6771550  79.2866350  72.3215920  27.1750590
  82.6330400  70.1522870  24.4348070  82.1847700  70.1747130  23.5893620
  81.9995600  69.7541890  25.0318370  83.0389950  79.0477200  25.0560510
  83.4578060  79.8909930  24.8836750  82.1198580  79.1849240  24.8267290
  85.3753850  76.7793380  26.4398350  85.4950060  76.1834520  27.1793190
  86.2347850  76.8163070  26.0199650  87.7141750  77.3330570  25.0160860
  87.1876970  77.8573190  24.4126000  88.0573090  77.9657960  25.6470590
  80.1128140  74.7223940  11.4610570  79.9117200  73.8591300  11.8223910
  79.9420190  74.6357300  10.5232170  80.8897370  85.3530210  26.1718240
  80.3518460  86.0776270  25.8526940  81.1431330  84.8760550  25.3815580
  82.1422620  73.3214730  27.6974170  82.7322310  73.0130580  28.3851990
  81.3242860  72.8494480  27.8534070  86.9616050  72.9380540  27.9307190
  86.2731570  72.2762080  27.8657180  87.6822070  72.4918810  28.3755650
  87.5916450  69.5332170  13.9897450  87.8718740  68.6900070  14.3456870
  86.8182180  69.7655280  14.5036200  78.9110940  71.8224560  11.4488450
  79.2136840  71.8291990  10.5407600  79.6505530  71.4722420  11.9456110
  83.7459580  86.5881420  26.4304890  83.6718280  87.4916560  26.7377260
  82.8438420  86.2693320  26.4026960  82.1295870  70.7659180  12.4344650
  81.7817870  70.0883170  11.8547100  82.3308640  70.3048690  13.2488040
  84.2944910  85.7539930  14.0531250  85.1895700  86.0924900  14.0750010
  84.3262540  85.0319340  13.4255530  77.9341070  81.1266980  12.2818250
  78.3715940  81.6696650  12.9375830  78.4188800  80.3013930  12.2914590
  75.1486870  83.9156010  19.7338510  75.4789880  83.0477070  19.5017150
  75.5777870  84.1214530  20.5643470  79.7448790  82.2465020  17.3940480
  79.4444330  82.1229990  18.2944390  79.6386280  81.3873610  16.9856210
  75.6377080  84.7826600  22.4720140  75.2008070  84.9627400  23.3044290
  76.2054760  85.5401220  22.3301860  75.4701510  77.2946830  18.8309020
  74.8150350  77.0258470  18.1868720  76.3079460  77.1851310  18.3811000
  89.9590900  81.0095580  24.8573610  89.1450740  81.4392740  25.1199400
  90.3665100  81.6213990  24.2442660  88.4191950  72.0888120  13.0527510
  88.8376830  71.9019100  12.2124170  88.1128010  71.2367170  13.3630440
  76.5077440  77.6799400  23.3712360  76.8750480  77.5926800  24.2508380
  75.9388260  76.9165950  23.2719220  76.0593440  74.5908490  27.2770780
  75.1649490  74.5575250  27.6164490  76.5990990  74.7895280  28.0422030
  89.7469370  71.3740210  29.1622530  90.6239550  71.3823610  29.5456530
  89.7590210  70.6371050  28.5514880  74.6839590  74.5045760  14.7734350
  73.7803670  74.7675960  14.5986010  75.1680210  74.7756930  13.9934310
  77.2266800  73.5611300  12.6828730  77.9358500  73.1394520  12.1976010
  76.5106740  73.6286530  12.0512080  76.8740960  69.6150630  11.7231380
  77.5969090  70.1559570  12.0412600  77.1465480  69.3414050  10.8472920
  76.5633150  68.8656820  21.6254000  77.2109340  68.3154200  21.1849160
  76.9834990  69.1199970  22.4469810  90.0166950  85.7614180  18.3841880
  90.6126020  85.4398750  17.7076300  90.2745100  85.2886000  19.1755150
  76.3165150  69.0212490  24.3679320  75.9679970  69.4776310  25.1337500
  75.9852850  68.1269620  24.4501750  77.9229520  82.1932090  28.5332510
  77.8799150  81.8225000  29.4146970  78.0540530  83.1309660  28.6734330
  81.6235550  83.7491680  24.1342230  81.3826910  84.0166240  23.2472750
  82.5638190  83.9197410  24.1893090  83.8289970  70.2124370  27.8898740
  83.7678860  70.8046200  28.6394150  84.7690350  70.1050330  27.7449000
  86.4664530  69.8694430  27.5291030  87.0804940  70.1873720  26.8672110
  87.0114090  69.3843020  28.1486890  76.9885790  68.5488690  27.6430090
  77.5368780  68.3676740  26.8796200  77.0541100  67.7582800  28.1786400
  77.7617550  85.1394340  25.6530290  77.1677870  85.0079040  26.3920330
  77.7541390  84.3032480  25.1872390  87.2072570  68.4326570  23.8560320
  86.3332410  68.7661680  23.6533250  87.0983320  67.9599750  24.6812190
  88.1144550  70.6397440  25.2402040  87.7857910  69.8249200  24.8603770
  89.0626850  70.5967250  25.1167730  90.5679160  86.4109480  22.2139610
  90.1082130  87.1625290  21.8397630  89.9391620  85.6915950  22.1554410
  77.3929780  82.5052720  24.6038330  76.6663840  81.8858010  24.5364280
  77.4538930  82.8993330  23.7336410  80.9974880  84.7197720  21.3887740
  81.5139900  84.1085080  20.8636000  81.6472260  85.2226500  21.8798750
  83.7370380  85.6106210  22.2156720  84.0248190  85.3560510  21.3389730
  84.2493600  85.0583570  22.8062290  84.9547390  69.3496410  22.7953230
  84.1719180  69.8241910  23.0749990  84.6610320  68.4451240  22.6866410
  89.5068460  70.0519510  20.8402320  89.9476550  69.9964610  19.9923920
  89.2376050  70.9677520  20.9112500  75.6759780  85.8227110  17.8135090
  75.5081820  85.1897790  18.5116980  74.8094290  86.0286510  17.4629280
  76.2987800  69.6543890  15.3166950  77.0567160  69.7672770  14.7430980
  75.8364970  70.4913090  15.2710380  82.8401610  71.7683160  18.3069260
  82.0276120  71.3940050  17.9665140  83.3443250  71.0128240  18.6090450
  87.3426590  68.4325610  19.5452330  87.9455960  69.0045820  20.0200850
  86.6019580  68.9965050  19.3226230  90.4861190  68.8347170  14.8192610
  90.6811820  69.7330620  15.0860040  89.6991060  68.6034250  15.3125560
  77.2822480  84.5160340  15.2585230  76.7570100  84.8968370  14.5547190
  77.2067060  85.1411110  15.9794940  78.6712950  70.1807940  13.8568920
  79.2005710  69.3937740  13.7276870  79.3041270  70.8599130  14.0904450
  80.8650790  69.9183080  16.9114310  80.2353530  69.2170390  17.0784440
  80.3255930  70.6787210  16.6947470  83.8042740  86.5322310  29.5824920
  84.7310050  86.2966580  29.6260880  83.7893170  87.3594310  29.1010950
  80.9906350  69.1967060  29.3466800  80.7090620  69.7000660  28.5827620
  81.3726050  68.3988810  28.9808930  79.8815450  86.4642720  14.1334480
  80.6134270  86.1802000  13.5858370  80.1409120  86.2256000  15.0233860
  79.0430240  82.5807450  14.1380810  78.4139120  83.0492550  14.6866640
  79.1578070  81.7356670  14.5727000  87.5921810  68.6120640  29.9247270
  87.4787260  68.9315250  30.8198790  88.4091550  69.0133150  29.6284550
  84.6298000  78.4092130   2.1691280  83.8540100  77.9292570   2.4589850
  85.2810930  77.7297780   1.9947440  78.6463830  78.7211940   3.0467040
  77.8148710  78.4660650   3.4463550  79.2544810  78.7922710   3.7824960
  78.6265090  82.7552030   3.2425060  78.9293130  81.8649770   3.0635280
  79.3708680  83.3122250   3.0147310  75.0188790  76.2819480   2.7149130
  75.5904900  75.5141680   2.7152770  75.0190330  76.5808240   1.8055740
  84.0706990  81.0849320   2.1761440  84.0015270  80.1439260   2.0150570
  84.8326850  81.1750730   2.7484010  76.2613660  71.6903840   4.5018060
  76.0816500  70.7929590   4.7820820  75.8593740  72.2375710   5.1765010
  76.8800330  74.1864340   3.1100400  77.5610440  74.4502710   3.7287800
  76.5648380  73.3465210   3.4438410  81.0724900  75.2331700   2.1972990
  81.5803120  75.7312670   2.8378010  81.6038140  74.4566900   2.0212350
  79.3561000  69.8730260   6.4636410  79.3579440  70.3902650   5.6582310
  78.5265310  69.3960440   6.4406340  80.6063850  79.5125440   4.6409910
  80.2733230  80.1394360   5.2830980  80.7830530  80.0387320   3.8611580
  89.1197760  73.3270520   2.1086250  88.4153330  73.6155410   2.6889360
  89.4809920  74.1370630   1.7485810  79.0376330  71.5840220   4.4706860
  79.3793140  72.4282270   4.1760730  78.0992140  71.7323960   4.5872200
  79.8182950  81.4806240   6.4559090  80.4356950  82.1557320   6.1743540
  78.9576070  81.8894220   6.3646590  88.2719280  84.7889780   3.0858910
  88.2846440  84.3852070   2.2181170  87.7194500  85.5637070   2.9820340
  87.6704720  79.6919620   4.4141520  88.0873510  79.4779730   3.5794980
  88.3944540  79.9492410   4.9850140  88.5808830  74.8776160   5.4512630
  88.1680010  75.7029870   5.7052620  87.8484780  74.2921200   5.2588990
  81.1823320  81.3503620   2.4770510  80.8851610  80.7449090   1.7978290
  82.1323140  81.3880930   2.3659870  79.4270240  74.4379270   4.0930340
  79.9784830  74.5474610   3.3183590  79.9413750  74.8116870   4.8085570
  89.2708930  84.9235490   6.1393610  88.7939490  85.7307680   5.9466220
  88.5870720  84.2713820   6.2919820  80.2741750  81.0885310   9.1278310
  79.3770280  81.3125280   9.3751710  80.2994620  81.2120250   8.1789710
  79.1012970  77.9598630   7.7035680  78.9620740  78.8321430   8.0723080
  78.2194330  77.6171440   7.5583620  80.8993320  83.9020330   9.9120830
  80.8708750  84.3063280   9.0449260  80.7358290  82.9730690   9.7492430
  75.0531620  79.7296180   3.6206590  75.1312040  79.8644950   2.6762310
  75.6673300  79.0212070   3.8134710  86.1158130  85.5788280   6.9379820
  86.6302800  85.4896290   7.7402250  85.2727210  85.9247980   7.2307730
  75.1091140  80.7710350   6.1601050  75.2722180  80.3015710   5.3420420
  75.5743590  80.2633910   6.8249890  84.1679720  72.7684630   6.7996940
  83.7059090  72.9767650   7.6116880  83.7657830  71.9543980   6.4967610
  89.1684230  73.9893580   7.9293600  88.3177820  73.6899330   8.2502670
  89.0086020  74.2335590   7.0177420  86.2633940  75.4895330  10.0292390
  86.5887350  74.6559080   9.6894620  87.0514270  76.0123850  10.1770720
  81.9185810  70.4463440   3.0551220  82.2158140  71.3526270   2.9743240
  82.4671370  69.9582220   2.4410790  82.1123340  75.9235260   9.5903140
  82.0166940  74.9829990   9.4403540  82.9555320  76.1450330   9.1951210
  77.2433880  72.3348930   7.7436920  76.8497270  73.1824140   7.9509700
  76.5552280  71.6975300   7.9345560  83.8178930  72.4183900  10.8133660
  83.1277250  72.2256100  11.4479750  84.5611230  72.7018540  11.3457960
  74.5450930  70.2577390   1.7767000  74.2563980  70.8280250   2.4891980
  75.2896690  69.7781840   2.1398230  86.0941900  76.2582340   3.6487580
  85.3623020  76.7669150   3.9977680  85.6966240  75.4412320   3.3476360
  86.5567810  71.7116020   3.0610520  86.5740550  72.1624670   3.9052370
  86.3083390  70.8121660   3.2743960  89.9838560  69.1248200   8.8996900
  90.3084330  68.3937860   9.4254880  90.0195070  68.8061840   7.9977890
  76.6830120  80.1461780   8.3196860  76.2984910  79.5055450   8.9179820
  76.9942310  80.8497900   8.8891590  82.8327260  76.9938320   3.8005480
  83.1997390  76.5196890   4.5466820  82.6432320  77.8679890   4.1413820
  80.6226630  76.0346960   6.1189690  80.3183700  76.9138940   6.3440050
  81.5773090  76.0946750   6.1547130  89.9096400  79.2373310   2.5082930
  90.6295520  79.7328600   2.1179040  89.7078220  78.5591200   1.8636800
  85.2915200  79.3082370   8.3951930  85.2252510  78.3878040   8.1409520
  84.6620340  79.4057810   9.1096570  76.6790360  76.8749700   7.2661050
  76.3205300  77.5403550   7.8534390  76.3844920  76.0433250   7.6373670
  79.8803480  77.3333940  10.1500600  79.5803620  77.4791120   9.2528420
  80.6514720  76.7739230  10.0573990  85.2231930  82.1302940   8.1455730
  85.2376470  81.1983900   7.9274640  84.5157030  82.2162700   8.7845500
  84.6565830  83.7720510   5.2396230  85.3008050  83.9779890   5.9169650
  85.0195270  83.0108910   4.7867080  85.9297910  81.7752860   3.9573680
  86.5720140  81.0746020   4.0705850  86.4547260  82.5551300   3.7770570
  87.7035530  82.5747760   7.1609740  88.0391770  83.1614450   7.8387660
  86.7835870  82.4440470   7.3907530  75.2538930  70.3642940   7.9433150
  74.5397450  70.5639860   8.5485760  75.6733970  69.5882510   8.3147950
  75.5411520  84.3523200   8.9299680  75.6502640  83.4117940   8.7895070
  74.8892080  84.6177950   8.2813410  83.5324110  82.6239090  10.3297800
  83.2120980  81.9048330  10.8743490  82.8582470  83.2994160  10.4033860
  86.7477710  72.8565250   5.6934600  87.1158530  72.0360460   6.0214170
  85.8875910  72.9167140   6.1090250  83.7079700  75.5104840   5.9172570
  84.2064950  75.9850660   6.5824420  83.8502650  74.5868360   6.1242600
  77.6869960  85.4192110  10.7419290  78.4882690  85.7404160  11.1554690
  77.1721780  85.0587690  11.4639200  86.5234590  81.5271980  10.6894700
  85.9172750  81.5503580   9.9490450  86.2188700  80.7955020  11.2261950
  87.9534960  85.2552270   9.3004110  88.9056710  85.1710290   9.2504350
  87.8063180  85.9193980   9.9737900  75.4067770  77.9065570   9.6855340
  75.9106790  77.3272850  10.2571570  74.6675190  78.1905800  10.2231710
  82.4605710  79.3136560   9.2190860  81.6951380  79.8821560   9.1345530
  82.6421670  79.0212770   8.3259090  89.6029060  81.0441890   9.7765880
  90.3438530  81.3817650   9.2733340  88.8401740  81.2133950   9.2235650
  77.4390850  76.0495160  10.5805410  77.4796190  75.7509030  11.4890640
  78.2936350  76.4502770  10.4212930  79.3796660  74.6287260   8.5479900
  78.8493120  74.1378210   7.9203240  80.0484730  75.0571460   8.0137830
  88.2774720  79.0956720   8.3121090  88.6915740  79.2501800   9.1611510
  87.3425720  79.2211940   8.4746870  88.7496890  76.4352880  10.3160240
  89.3317660  75.6805200  10.2280720  88.9258660  76.9660320   9.5391720
  79.8668960  71.5949630   8.6277190  79.7725830  70.9770380   7.9028060
  79.2866350  72.3215920   8.4007100  82.6330400  70.1522870   5.6604580
  82.1847700  70.1747130   4.8150130  81.9995600  69.7541890   6.2574880
  83.0389950  79.0477200   6.2817020  83.4578060  79.8909930   6.1093260
  82.1198580  79.1849240   6.0523800  85.3753850  76.7793380   7.6654860
  85.4950060  76.1834520   8.4049700  86.2347850  76.8163070   7.2456160
  87.7141750  77.3330570   6.2417370  87.1876970  77.8573190   5.6382510
  88.0573090  77.9657960   6.8727100  80.8897370  85.3530210   7.3974750
  80.3518460  86.0776270   7.0783450  81.1431330  84.8760550   6.6072090
  82.1422620  73.3214730   8.9230680  82.7322310  73.0130580   9.6108500
  81.3242860  72.8494480   9.0790580  86.9616050  72.9380540   9.1563700
  86.2731570  72.2762080   9.0913690  87.6822070  72.4918810   9.6012160
  83.7459580  86.5881420   7.6561400  83.6718280  87.4916560   7.9633770
  82.8438420  86.2693320   7.6283470  75.6377080  84.7826600   3.6976650
  75.2008070  84.9627400   4.5300800  76.2054760  85.5401220   3.5558370
  89.9590900  81.0095580   6.0830120  89.1450740  81.4392740   6.3455910
  90.3665100  81.6213990   5.4699170  76.5077440  77.6799400   4.5968870
  76.8750480  77.5926800   5.4764890  75.9388260  76.9165950   4.4975730
  76.0593440  74.5908490   8.5027290  75.1649490  74.5575250   8.8421000
  76.5990990  74.7895280   9.2678540  89.7469370  71.3740210  10.3879040
  90.6239550  71.3823610  10.7713040  89.7590210  70.6371050   9.7771390
  76.5633150  68.8656820   2.8510510  77.2109340  68.3154200   2.4105670
  76.9834990  69.1199970   3.6726320  76.3165150  69.0212490   5.5935830
  75.9679970  69.4776310   6.3594010  75.9852850  68.1269620   5.6758260
  77.9229520  82.1932090   9.7589020  77.8799150  81.8225000  10.6403480
  78.0540530  83.1309660   9.8990840  81.6235550  83.7491680   5.3598740
  81.3826910  84.0166240   4.4729260  82.5638190  83.9197410   5.4149600
  83.8289970  70.2124370   9.1155250  83.7678860  70.8046200   9.8650660
  84.7690350  70.1050330   8.9705510  86.4664530  69.8694430   8.7547540
  87.0804940  70.1873720   8.0928620  87.0114090  69.3843020   9.3743400
  76.9885790  68.5488690   8.8686600  77.5368780  68.3676740   8.1052710
  77.0541100  67.7582800   9.4042910  77.7617550  85.1394340   6.8786800
  77.1677870  85.0079040   7.6176840  77.7541390  84.3032480   6.4128900
  87.2072570  68.4326570   5.0816830  86.3332410  68.7661680   4.8789760
  87.0983320  67.9599750   5.9068700  88.1144550  70.6397440   6.4658550
  87.7857910  69.8249200   6.0860280  89.0626850  70.5967250   6.3424240
  90.5679160  86.4109480   3.4396120  90.1082130  87.1625290   3.0654140
  89.9391620  85.6915950   3.3810920  77.3929780  82.5052720   5.8294840
  76.6663840  81.8858010   5.7620790  77.4538930  82.8993330   4.9592920
  80.9974880  84.7197720   2.6144250  81.5139900  84.1085080   2.0892510
  81.6472260  85.2226500   3.1055260  83.7370380  85.6106210   3.4413230
  84.0248190  85.3560510   2.5646240  84.2493600  85.0583570   4.0318800
  84.9547390  69.3496410   4.0209740  84.1719180  69.8241910   4.3006500
  84.6610320  68.4451240   3.9122920  83.8042740  86.5322310  10.8081430
  84.7310050  86.2966580  10.8517390  83.7893170  87.3594310  10.3267460
  80.9906350  69.1967060  10.5723310  80.7090620  69.7000660   9.8084130
  81.3726050  68.3988810  10.2065440  87.5921810  68.6120640  11.1503780
  87.4787260  68.9315250  12.0455300  88.4091550  69.0133150  10.8541060
  86.4979960  57.8569620  94.1599460  86.4174010  56.9424230  93.8891170
  86.0844380  58.3536690  93.4539170  88.6505430  64.0408830  94.8207860
  88.1886960  63.2696070  95.1495030  89.4630980  64.0674900  95.3260310
  77.0555780  54.9070340  90.7026880  76.1672480  55.2486310  90.6006760
  77.3396970  54.7070660  89.8107710  84.8768740  66.3266840  94.4411850
  84.2580180  66.7824340  93.8706290  85.7320520  66.4818300  94.0401550
  79.2317170  53.4901840  91.7365260  79.3383920  54.3905570  92.0434020
  78.3209530  53.4419810  91.4459910  88.8836280  52.6126650  93.2076160
  89.7045900  52.1223220  93.2501640  88.9170360  53.2024310  93.9608000
  85.7432090  61.2106080  91.8343760  85.1249360  61.6755530  91.2706480
  86.2555340  61.9033560  92.2513270  75.1115290  61.8962610  89.2083390
  74.7343270  62.3849710  88.4768290  75.3688360  62.5687890  89.8389920
  82.7204220  50.2979000  94.6668900  83.0279200  49.7425890  93.9504400
  81.7904920  50.4323460  94.4841890  89.5664700  62.7362510  92.0466530
  89.4561030  61.7936840  92.1715950  89.5632950  63.0978150  92.9329290
  85.1084980  58.3627830  91.4029020  84.1814260  58.2965210  91.6317490
  85.2609800  59.3007960  91.2884260  85.0954060  54.6344830  88.3996180
  84.1557730  54.7958790  88.4848640  85.4137320  55.3530510  87.8532170
  89.1382270  59.9248130  91.9064270  88.5194690  59.5867680  91.2590570
  89.1206720  59.2807890  92.6143460  80.7141620  58.8892570  94.1848750
  80.3098620  58.1769820  93.6894650  80.8004740  58.5445810  95.0736790
  87.3146970  59.1634940  88.9137020  87.7540250  58.3257370  88.7674840
  88.0275390  59.7964340  89.0001160  85.4242350  64.1031010  92.8818260
  85.8638260  64.8455340  92.4673650  85.3629240  64.3457580  93.8057220
  77.4146250  57.7837550  91.6855400  77.2943850  58.5099640  91.0736670
  77.1047140  57.0140460  91.2083310  76.2979250  62.6552880  93.9030220
  75.8907330  62.7967470  93.0483820  77.1892260  62.3713040  93.7001430
  88.0912530  67.0900130  90.2381270  87.9313670  66.8003070  91.1363100
  87.9259240  66.3140260  89.7026500  80.5700910  66.8698660  92.0152890
  80.3943390  65.9534200  91.8020690  79.7156650  67.2285950  92.2550690
  87.7938660  64.5987690  88.7979270  87.1003820  64.5964980  88.1381550
  88.5361520  64.1747010  88.3673440  87.3588590  66.2250400  92.8727760
  87.8145540  65.4439780  93.1866380  87.6981110  66.9357220  93.4168940
  79.8809910  51.1272620  95.0679070  79.4378060  51.9082160  94.7363590
  80.4394900  51.4502510  95.7750010  82.9968730  50.7483320  89.9484900
  82.3722910  50.7443190  90.6738210  82.9098850  49.8814280  89.5520870
  79.6724130  56.2506190  92.7960320  79.4465050  56.0343360  93.7006940
  78.8916660  56.6834650  92.4506290  86.9021890  56.2569560  91.3950970
  86.3030780  56.9805360  91.2114590  87.4501500  56.1946340  90.6127420
  85.5086760  54.8933100  93.4254250  85.9016330  55.2105300  92.6122940
  85.8703610  54.0144980  93.5398770  74.7321160  55.4254020  86.8587170
  74.6495830  56.3684780  87.0002160  74.3804220  55.2828930  85.9799520
  82.5319290  54.1593050  95.9257520  82.5355350  53.7183000  95.0762060
  83.4270410  54.4810380  96.0329340  78.3821670  54.0419540  94.8851730
  78.0421720  54.5194770  95.6418780  77.6198990  53.5884660  94.5252830
  82.5939440  55.1605130  88.9164280  82.7152260  55.1191610  89.8650100
  82.2087950  56.0229280  88.7611010  81.6060940  57.4706270  88.3147580
  81.0377840  57.0224520  87.6883490  82.3149940  57.8299050  87.7812730
  75.6967750  52.9638520  93.8016400  75.4114670  52.5994190  94.6395020
  75.6346610  52.2318980  93.1879540  79.1508420  61.4664460  90.5873990
  78.3770680  60.9262080  90.4272710  79.8803050  60.9471070  90.2491750
  85.3706340  51.8567780  90.5229770  84.5570950  51.3580950  90.4475080
  85.1768290  52.6966030  90.1066120  88.0854730  56.2287430  88.8191930
  88.9734350  56.5404660  88.6443270  88.0559820  55.3559680  88.4272510
  79.1945820  61.1344840  94.2252800  79.7124490  60.3313100  94.1709690
  78.7429840  61.0723980  95.0669630  84.0815320  62.4011120  89.4980100
  84.4231020  63.1453350  89.0023420  83.2528030  62.7142240  89.8604930
  86.9642730  61.7226960  94.8625610  87.3166550  61.1255090  94.2026980
  86.0805060  61.3971190  95.0333860  83.0506010  62.4824650  92.2696020
  83.7377140  63.0293860  92.6503610  82.2638430  63.0265380  92.3045630
  75.1898410  58.0997470  87.7613100  76.0593260  58.3822270  88.0449020
  74.6988730  58.9133340  87.6461910  82.3533220  59.4870680  91.8821380
  82.8096000  60.2975930  92.1081570  82.0021430  59.1693820  92.7139870
  78.2545000  49.8308330  92.3543900  78.1259630  49.8226230  93.3028820
  77.4307020  50.1691420  92.0034910  89.7753630  63.2857990  87.5530270
  89.5491210  62.5688430  88.1454910  89.3849830  63.0370430  86.7152020
  75.5569660  67.3124850  88.3274730  75.9167300  67.9114190  87.6732000
  75.4162000  67.8584740  89.1009760  89.3569880  61.2029930  89.2144430
  89.0691580  61.6642620  90.0022310  90.1522050  60.7427700  89.4828650
  81.5738280  64.6956050  89.1448400  81.5648380  65.4285740  88.5292910
  80.6536640  64.4487630  89.2375360  77.1744920  59.9170940  89.8895160
  76.5672870  60.6569840  89.8990460  77.6494270  60.0070300  89.0633360
  90.1139740  53.0378700  90.3739610  89.4852900  53.1424370  89.6597840
  89.6191660  53.2575480  91.1633490  84.5597880  64.7584290  87.8073590
  84.6609860  64.5548280  86.8775570  83.6599620  64.5042570  88.0121370
  82.0823770  55.3164650  91.7897490  81.3739920  55.7850990  92.2311100
  82.3668250  54.6586660  92.4242680  86.1139200  52.0415310  93.2293280
  85.9906980  52.0601440  92.2802790  87.0623760  52.0894250  93.3491680
  83.2015990  67.2770610  92.5021260  83.4557490  67.2392000  91.5800630
  82.2528470  67.1503940  92.4949510  80.2858790  53.6249730  89.1648200
  81.1349320  54.0619880  89.0988390  79.9190060  53.9369990  89.9920260
  89.2068570  58.1962490  94.0779770  88.2658710  58.2112720  94.2527460
  89.5212640  57.4098450  94.5240070  79.1850210  59.8782090  87.6383730
  79.9513480  59.7663450  88.2009160  79.2624900  59.1820060  86.9860500
  77.8796970  57.3107160  88.3216620  77.9600560  56.3634670  88.4334020
  78.7716720  57.6414040  88.4277280  78.6811680  67.4602550  95.4251160
  79.4174160  66.9118010  95.6959730  79.0652600  68.3258560  95.2857150
  75.5657160  63.5276120  91.2992670  74.6396940  63.7697260  91.2898080
  76.0313590  64.3550380  91.1777420  81.7913990  66.6332860  87.2476730
  82.5842600  66.9221690  86.7958520  81.2718340  66.2025030  86.5689210
  82.3091390  61.8536270  87.1119080  82.2042030  61.2388620  87.8380460
  82.1415610  61.3302160  86.3282090  85.5494120  60.9156300  87.7161070
  85.0004220  61.3625600  88.3603810  86.1713380  60.4105550  88.2398740
  81.2169240  59.8747220  89.6126370  81.6385660  59.7087090  90.4557760
  81.3420080  59.0647450  89.1181510  83.7296880  58.8984830  86.8603470
  84.2502540  58.1833850  86.4944620  84.3765280  59.5370700  87.1603980
  80.1128140  55.9480450  86.5584530  79.9117200  55.0847810  86.9197870
  79.9420190  55.8613810  85.6206130  87.5916450  50.7588680  89.0871410
  87.8718740  49.9156580  89.4430830  86.8182180  50.9911790  89.6010160
  78.9110940  53.0481070  86.5462410  79.2136840  53.0548500  85.6381560
  79.6505530  52.6978930  87.0430070  82.1295870  51.9915690  87.5318610
  81.7817870  51.3139680  86.9521060  82.3308640  51.5305200  88.3462000
  84.2944910  66.9796440  89.1505210  85.1895700  67.3181410  89.1723970
  84.3262540  66.2575850  88.5229490  77.9341070  62.3523490  87.3792210
  78.3715940  62.8953160  88.0349790  78.4188800  61.5270440  87.3888550
  75.1486870  65.1412520  94.8312470  75.4789880  64.2733580  94.5991110
  75.5777870  65.3471040  95.6617430  79.7448790  63.4721530  92.4914440
  79.4444330  63.3486500  93.3918350  79.6386280  62.6130120  92.0830170
  75.4701510  58.5203340  93.9282980  74.8150350  58.2514980  93.2842680
  76.3079460  58.4107820  93.4784960  88.4191950  53.3144630  88.1501470
  88.8376830  53.1275610  87.3098130  88.1128010  52.4623680  88.4604400
  74.6839590  55.7302270  89.8708310  73.7803670  55.9932470  89.6959970
  75.1680210  56.0013440  89.0908270  77.2266800  54.7867810  87.7802690
  77.9358500  54.3651030  87.2949970  76.5106740  54.8543040  87.1486040
  76.8740960  50.8407140  86.8205340  77.5969090  51.3816080  87.1386560
  77.1465480  50.5670560  85.9446880  90.0166950  66.9870690  93.4815840
  90.6126020  66.6655260  92.8050260  90.2745100  66.5142510  94.2729110
  89.5068460  51.2776020  95.9376280  89.9476550  51.2221120  95.0897880
  89.2376050  52.1934030  96.0086460  75.6759780  67.0483620  92.9109050
  75.5081820  66.4154300  93.6090940  74.8094290  67.2543020  92.5603240
  76.2987800  50.8800400  90.4140910  77.0567160  50.9929280  89.8404940
  75.8364970  51.7169600  90.3684340  82.8401610  52.9939670  93.4043220
  82.0276120  52.6196560  93.0639100  83.3443250  52.2384750  93.7064410
  87.3426590  49.6582120  94.6426290  87.9455960  50.2302330  95.1174810
  86.6019580  50.2221560  94.4200190  90.4861190  50.0603680  89.9166570
  90.6811820  50.9587130  90.1834000  89.6991060  49.8290760  90.4099520
  77.2822480  65.7416850  90.3559190  76.7570100  66.1224880  89.6521150
  77.2067060  66.3667620  91.0768900  78.6712950  51.4064450  88.9542880
  79.2005710  50.6194250  88.8250830  79.3041270  52.0855640  89.1878410
  80.8650790  51.1439590  92.0088270  80.2353530  50.4426900  92.1758400
  80.3255930  51.9043720  91.7921430  79.8815450  67.6899230  89.2308440
  80.6134270  67.4058510  88.6832330  80.1409120  67.4512510  90.1207820
  79.0430240  63.8063960  89.2354770  78.4139120  64.2749060  89.7840600
  79.1578070  62.9613180  89.6700960  86.4979960  57.8569620  75.3855970
  86.4174010  56.9424230  75.1147680  86.0844380  58.3536690  74.6795680
  84.6298000  59.6348640  77.2665240  83.8540100  59.1549080  77.5563810
  85.2810930  58.9554290  77.0921400  78.6463830  59.9468450  78.1441000
  77.8148710  59.6917160  78.5437510  79.2544810  60.0179220  78.8798920
  88.6505430  64.0408830  76.0464370  88.1886960  63.2696070  76.3751540
  89.4630980  64.0674900  76.5516820  78.6265090  63.9808540  78.3399020
  78.9293130  63.0906280  78.1609240  79.3708680  64.5378760  78.1121270
  77.0555780  54.9070340  71.9283390  76.1672480  55.2486310  71.8263270
  77.3396970  54.7070660  71.0364220  75.0188790  57.5075990  77.8123090
  75.5904900  56.7398190  77.8126730  75.0190330  57.8064750  76.9029700
  84.8768740  66.3266840  75.6668360  84.2580180  66.7824340  75.0962800
  85.7320520  66.4818300  75.2658060  84.0706990  62.3105830  77.2735400
  84.0015270  61.3695770  77.1124530  84.8326850  62.4007240  77.8457970
  76.2613660  52.9160350  79.5992020  76.0816500  52.0186100  79.8794780
  75.8593740  53.4632220  80.2738970  85.1012160  55.1176210  77.5004330
  85.4776980  54.2448090  77.3878000  85.0031670  55.4534910  76.6094770
  79.2317170  53.4901840  72.9621770  79.3383920  54.3905570  73.2690530
  78.3209530  53.4419810  72.6716420  88.8836280  52.6126650  74.4332670
  89.7045900  52.1223220  74.4758150  88.9170360  53.2024310  75.1864510
  76.8800330  55.4120850  78.2074360  77.5610440  55.6759220  78.8261760
  76.5648380  54.5721720  78.5412370  81.0724900  56.4588210  77.2946950
  81.5803120  56.9569180  77.9351970  81.6038140  55.6823410  77.1186310
  79.3561000  51.0986770  81.5610370  79.3579440  51.6159160  80.7556270
  78.5265310  50.6216950  81.5380300  85.7432090  61.2106080  73.0600270
  85.1249360  61.6755530  72.4962990  86.2555340  61.9033560  73.4769780
  80.6063850  60.7381950  79.7383870  80.2733230  61.3650870  80.3804940
  80.7830530  61.2643830  78.9585540  89.1197760  54.5527030  77.2060210
  88.4153330  54.8411920  77.7863320  89.4809920  55.3627140  76.8459770
  79.0376330  52.8096730  79.5680820  79.3793140  53.6538780  79.2734690
  78.0992140  52.9580470  79.6846160  79.8182950  62.7062750  81.5533050
  80.4356950  63.3813830  81.2717500  78.9576070  63.1150730  81.4620550
  75.1115290  61.8962610  70.4339900  74.7343270  62.3849710  69.7024800
  75.3688360  62.5687890  71.0646430  82.7204220  50.2979000  75.8925410
  83.0279200  49.7425890  75.1760910  81.7904920  50.4323460  75.7098400
  88.2719280  66.0146290  78.1832870  88.2846440  65.6108580  77.3155130
  87.7194500  66.7893580  78.0794300  89.5664700  62.7362510  73.2723040
  89.4561030  61.7936840  73.3972460  89.5632950  63.0978150  74.1585800
  87.6704720  60.9176130  79.5115480  88.0873510  60.7036240  78.6768940
  88.3944540  61.1748920  80.0824100  85.1084980  58.3627830  72.6285530
  84.1814260  58.2965210  72.8574000  85.2609800  59.3007960  72.5140770
  85.0954060  54.6344830  69.6252690  84.1557730  54.7958790  69.7105150
  85.4137320  55.3530510  69.0788680  89.1382270  59.9248130  73.1320780
  88.5194690  59.5867680  72.4847080  89.1206720  59.2807890  73.8399970
  88.5808830  56.1032670  80.5486590  88.1680010  56.9286380  80.8026580
  87.8484780  55.5177710  80.3562950  80.7141620  58.8892570  75.4105260
  80.3098620  58.1769820  74.9151160  80.8004740  58.5445810  76.2993300
  81.1823320  62.5760130  77.5744470  80.8851610  61.9705600  76.8952250
  82.1323140  62.6137440  77.4633830  79.4270240  55.6635780  79.1904300
  79.9784830  55.7731120  78.4157550  79.9413750  56.0373380  79.9059530
  89.2708930  66.1492000  81.2367570  88.7939490  66.9564190  81.0440180
  88.5870720  65.4970330  81.3893780  80.2741750  62.3141820  84.2252270
  79.3770280  62.5381790  84.4725670  80.2994620  62.4376760  83.2763670
  87.3146970  59.1634940  70.1393530  87.7540250  58.3257370  69.9931350
  88.0275390  59.7964340  70.2257670  79.1012970  59.1855140  82.8009640
  78.9620740  60.0577940  83.1697040  78.2194330  58.8427950  82.6557580
  85.4242350  64.1031010  74.1074770  85.8638260  64.8455340  73.6930160
  85.3629240  64.3457580  75.0313730  80.8993320  65.1276840  85.0094790
  80.8708750  65.5319790  84.1423220  80.7358290  64.1987200  84.8466390
  77.4146250  57.7837550  72.9111910  77.2943850  58.5099640  72.2993180
  77.1047140  57.0140460  72.4339820  75.0531620  60.9552690  78.7180550
  75.1312040  61.0901460  77.7736270  75.6673300  60.2468580  78.9108670
  76.2979250  62.6552880  75.1286730  75.8907330  62.7967470  74.2740330
  77.1892260  62.3713040  74.9257940  86.1158130  66.8044790  82.0353780
  86.6302800  66.7152800  82.8376210  85.2727210  67.1504490  82.3281690
  88.0912530  67.0900130  71.4637780  87.9313670  66.8003070  72.3619610
  87.9259240  66.3140260  70.9283010  80.5700910  66.8698660  73.2409400
  80.3943390  65.9534200  73.0277200  79.7156650  67.2285950  73.4807200
  87.7938660  64.5987690  70.0235780  87.1003820  64.5964980  69.3638060
  88.5361520  64.1747010  69.5929950  87.3588590  66.2250400  74.0984270
  87.8145540  65.4439780  74.4122890  87.6981110  66.9357220  74.6425450
  75.1091140  61.9966860  81.2575010  75.2722180  61.5272220  80.4394380
  75.5743590  61.4890420  81.9223850  79.8809910  51.1272620  76.2935580
  79.4378060  51.9082160  75.9620100  80.4394900  51.4502510  77.0006520
  84.1679720  53.9941140  81.8970900  83.7059090  54.2024160  82.7090840
  83.7657830  53.1800490  81.5941570  89.1684230  55.2150090  83.0267560
  88.3177820  54.9155840  83.3476630  89.0086020  55.4592100  82.1151380
  86.2633940  56.7151840  85.1266350  86.5887350  55.8815590  84.7868580
  87.0514270  57.2380360  85.2744680  82.9968730  50.7483320  71.1741410
  82.3722910  50.7443190  71.8994720  82.9098850  49.8814280  70.7777380
  81.9185810  51.6719950  78.1525180  82.2158140  52.5782780  78.0717200
  82.4671370  51.1838730  77.5384750  79.6724130  56.2506190  74.0216830
  79.4465050  56.0343360  74.9263450  78.8916660  56.6834650  73.6762800
  86.9021890  56.2569560  72.6207480  86.3030780  56.9805360  72.4371100
  87.4501500  56.1946340  71.8383930  82.1123340  57.1491770  84.6877100
  82.0166940  56.2086500  84.5377500  82.9555320  57.3706840  84.2925170
  85.5086760  54.8933100  74.6510760  85.9016330  55.2105300  73.8379450
  85.8703610  54.0144980  74.7655280  77.2433880  53.5605440  82.8410880
  76.8497270  54.4080650  83.0483660  76.5552280  52.9231810  83.0319520
  83.8178930  53.6440410  85.9107620  83.1277250  53.4512610  86.5453710
  84.5611230  53.9275050  86.4431920  74.5450930  51.4833900  76.8740960
  74.2563980  52.0536760  77.5865940  75.2896690  51.0038350  77.2372190
  74.7321160  55.4254020  68.0843680  74.6495830  56.3684780  68.2258670
  74.3804220  55.2828930  67.2056030  86.0941900  57.4838850  78.7461540
  85.3623020  57.9925660  79.0951640  85.6966240  56.6668830  78.4450320
  82.5319290  54.1593050  77.1514030  82.5355350  53.7183000  76.3018570
  83.4270410  54.4810380  77.2585850  78.3821670  54.0419540  76.1108240
  78.0421720  54.5194770  76.8675290  77.6198990  53.5884660  75.7509340
  82.5939440  55.1605130  70.1420790  82.7152260  55.1191610  71.0906610
  82.2087950  56.0229280  69.9867520  86.5567810  52.9372530  78.1584480
  86.5740550  53.3881180  79.0026330  86.3083390  52.0378170  78.3717920
  81.6060940  57.4706270  69.5404090  81.0377840  57.0224520  68.9140000
  82.3149940  57.8299050  69.0069240  89.9838560  50.3504710  83.9970860
  90.3084330  49.6194370  84.5228840  90.0195070  50.0318350  83.0951850
  76.6830120  61.3718290  83.4170820  76.2984910  60.7311960  84.0153780
  76.9942310  62.0754410  83.9865550  82.8327260  58.2194830  78.8979440
  83.1997390  57.7453400  79.6440780  82.6432320  59.0936400  79.2387780
  75.6967750  52.9638520  75.0272910  75.4114670  52.5994190  75.8651530
  75.6346610  52.2318980  74.4136050  80.6226630  57.2603470  81.2163650
  80.3183700  58.1395450  81.4414010  81.5773090  57.3203260  81.2521090
  79.1508420  61.4664460  71.8130500  78.3770680  60.9262080  71.6529220
  79.8803050  60.9471070  71.4748260  89.9096400  60.4629820  77.6056890
  90.6295520  60.9585110  77.2153000  89.7078220  59.7847710  76.9610760
  85.3706340  51.8567780  71.7486280  84.5570950  51.3580950  71.6731590
  85.1768290  52.6966030  71.3322630  85.2915200  60.5338880  83.4925890
  85.2252510  59.6134550  83.2383480  84.6620340  60.6314320  84.2070530
  88.0854730  56.2287430  70.0448440  88.9734350  56.5404660  69.8699780
  88.0559820  55.3559680  69.6529020  79.1945820  61.1344840  75.4509310
  79.7124490  60.3313100  75.3966200  78.7429840  61.0723980  76.2926140
  84.0815320  62.4011120  70.7236610  84.4231020  63.1453350  70.2279930
  83.2528030  62.7142240  71.0861440  76.6790360  58.1006210  82.3635010
  76.3205300  58.7660060  82.9508350  76.3844920  57.2689760  82.7347630
  79.8803480  58.5590450  85.2474560  79.5803620  58.7047630  84.3502380
  80.6514720  57.9995740  85.1547950  85.2231930  63.3559450  83.2429690
  85.2376470  62.4240410  83.0248600  84.5157030  63.4419210  83.8819460
  86.9642730  61.7226960  76.0882120  87.3166550  61.1255090  75.4283490
  86.0805060  61.3971190  76.2590370  83.0506010  62.4824650  73.4952530
  83.7377140  63.0293860  73.8760120  82.2638430  63.0265380  73.5302140
  75.1898410  58.0997470  68.9869610  76.0593260  58.3822270  69.2705530
  74.6988730  58.9133340  68.8718420  82.3533220  59.4870680  73.1077890
  82.8096000  60.2975930  73.3338080  82.0021430  59.1693820  73.9396380
  84.6565830  64.9977020  80.3370190  85.3008050  65.2036400  81.0143610
  85.0195270  64.2365420  79.8841040  78.2545000  49.8308330  73.5800410
  78.1259630  49.8226230  74.5285330  77.4307020  50.1691420  73.2291420
  85.9297910  63.0009370  79.0547640  86.5720140  62.3002530  79.1679810
  86.4547260  63.7807810  78.8744530  89.7753630  63.2857990  68.7786780
  89.5491210  62.5688430  69.3711420  89.3849830  63.0370430  67.9408530
  87.7035530  63.8004270  82.2583700  88.0391770  64.3870960  82.9361620
  86.7835870  63.6696980  82.4881490  75.5569660  67.3124850  69.5531240
  75.9167300  67.9114190  68.8988510  75.4162000  67.8584740  70.3266270
  75.2538930  51.5899450  83.0407110  74.5397450  51.7896370  83.6459720
  75.6733970  50.8139020  83.4121910  89.3569880  61.2029930  70.4400940
  89.0691580  61.6642620  71.2278820  90.1522050  60.7427700  70.7085160
  75.5411520  65.5779710  84.0273640  75.6502640  64.6374450  83.8869030
  74.8892080  65.8434460  83.3787370  83.5324110  63.8495600  85.4271760
  83.2120980  63.1304840  85.9717450  82.8582470  64.5250670  85.5007820
  81.5738280  64.6956050  70.3704910  81.5648380  65.4285740  69.7549420
  80.6536640  64.4487630  70.4631870  77.1744920  59.9170940  71.1151670
  76.5672870  60.6569840  71.1246970  77.6494270  60.0070300  70.2889870
  86.7477710  54.0821760  80.7908560  87.1158530  53.2616970  81.1188130
  85.8875910  54.1423650  81.2064210  90.1139740  53.0378700  71.5996120
  89.4852900  53.1424370  70.8854350  89.6191660  53.2575480  72.3890000
  84.5597880  64.7584290  69.0330100  84.6609860  64.5548280  68.1032080
  83.6599620  64.5042570  69.2377880  82.0823770  55.3164650  73.0154000
  81.3739920  55.7850990  73.4567610  82.3668250  54.6586660  73.6499190
  83.7079700  56.7361350  81.0146530  84.2064950  57.2107170  81.6798380
  83.8502650  55.8124870  81.2216560  86.1139200  52.0415310  74.4549790
  85.9906980  52.0601440  73.5059300  87.0623760  52.0894250  74.5748190
  83.2015990  67.2770610  73.7277770  83.4557490  67.2392000  72.8057140
  82.2528470  67.1503940  73.7206020  80.2858790  53.6249730  70.3904710
  81.1349320  54.0619880  70.3244900  79.9190060  53.9369990  71.2176770
  89.2068570  58.1962490  75.3036280  88.2658710  58.2112720  75.4783970
  89.5212640  57.4098450  75.7496580  79.1850210  59.8782090  68.8640240
  79.9513480  59.7663450  69.4265670  79.2624900  59.1820060  68.2117010
  77.8796970  57.3107160  69.5473130  77.9600560  56.3634670  69.6590530
  78.7716720  57.6414040  69.6533790  78.6811680  67.4602550  76.6507670
  79.4174160  66.9118010  76.9216240  79.0652600  68.3258560  76.5113660
  75.5657160  63.5276120  72.5249180  74.6396940  63.7697260  72.5154590
  76.0313590  64.3550380  72.4033930  77.6869960  66.6448620  85.8393250
  78.4882690  66.9660670  86.2528650  77.1721780  66.2844200  86.5613160
  81.7913990  66.6332860  68.4733240  82.5842600  66.9221690  68.0215030
  81.2718340  66.2025030  67.7945720  86.5234590  62.7528490  85.7868660
  85.9172750  62.7760090  85.0464410  86.2188700  62.0211530  86.3235910
  87.9534960  66.4808780  84.3978070  88.9056710  66.3966800  84.3478310
  87.8063180  67.1450490  85.0711860  75.4067770  59.1322080  84.7829300
  75.9106790  58.5529360  85.3545530  74.6675190  59.4162310  85.3205670
  82.3091390  61.8536270  68.3375590  82.2042030  61.2388620  69.0636970
  82.1415610  61.3302160  67.5538600  82.4605710  60.5393070  84.3164820
  81.6951380  61.1078070  84.2319490  82.6421670  60.2469280  83.4233050
  85.5494120  60.9156300  68.9417580  85.0004220  61.3625600  69.5860320
  86.1713380  60.4105550  69.4655250  89.6029060  62.2698400  84.8739840
  90.3438530  62.6074160  84.3707300  88.8401740  62.4390460  84.3209610
  77.4390850  57.2751670  85.6779370  77.4796190  56.9765540  86.5864600
  78.2936350  57.6759280  85.5186890  81.2169240  59.8747220  70.8382880
  81.6385660  59.7087090  71.6814270  81.3420080  59.0647450  70.3438020
  79.3796660  55.8543770  83.6453860  78.8493120  55.3634720  83.0177200
  80.0484730  56.2827970  83.1111790  83.7296880  58.8984830  68.0859980
  84.2502540  58.1833850  67.7201130  84.3765280  59.5370700  68.3860490
  88.2774720  60.3213230  83.4095050  88.6915740  60.4758310  84.2585470
  87.3425720  60.4468450  83.5720830  88.7496890  57.6609390  85.4134200
  89.3317660  56.9061710  85.3254680  88.9258660  58.1916830  84.6365680
  79.8668960  52.8206140  83.7251150  79.7725830  52.2026890  83.0002020
  79.2866350  53.5472430  83.4981060  82.6330400  51.3779380  80.7578540
  82.1847700  51.4003640  79.9124090  81.9995600  50.9798400  81.3548840
  83.0389950  60.2733710  81.3790980  83.4578060  61.1166440  81.2067220
  82.1198580  60.4105750  81.1497760  85.3753850  58.0049890  82.7628820
  85.4950060  57.4091030  83.5023660  86.2347850  58.0419580  82.3430120
  87.7141750  58.5587080  81.3391330  87.1876970  59.0829700  80.7356470
  88.0573090  59.1914470  81.9701060  80.1128140  55.9480450  67.7841040
  79.9117200  55.0847810  68.1454380  79.9420190  55.8613810  66.8462640
  80.8897370  66.5786720  82.4948710  80.3518460  67.3032780  82.1757410
  81.1431330  66.1017060  81.7046050  82.1422620  54.5471240  84.0204640
  82.7322310  54.2387090  84.7082460  81.3242860  54.0750990  84.1764540
  86.9616050  54.1637050  84.2537660  86.2731570  53.5018590  84.1887650
  87.6822070  53.7175320  84.6986120  87.5916450  50.7588680  70.3127920
  87.8718740  49.9156580  70.6687340  86.8182180  50.9911790  70.8266670
  78.9110940  53.0481070  67.7718920  79.2136840  53.0548500  66.8638070
  79.6505530  52.6978930  68.2686580  83.7459580  67.8137930  82.7535360
  83.6718280  68.7173070  83.0607730  82.8438420  67.4949830  82.7257430
  82.1295870  51.9915690  68.7575120  81.7817870  51.3139680  68.1777570
  82.3308640  51.5305200  69.5718510  84.2944910  66.9796440  70.3761720
  85.1895700  67.3181410  70.3980480  84.3262540  66.2575850  69.7486000
  77.9341070  62.3523490  68.6048720  78.3715940  62.8953160  69.2606300
  78.4188800  61.5270440  68.6145060  75.1486870  65.1412520  76.0568980
  75.4789880  64.2733580  75.8247620  75.5777870  65.3471040  76.8873940
  79.7448790  63.4721530  73.7170950  79.4444330  63.3486500  74.6174860
  79.6386280  62.6130120  73.3086680  75.6377080  66.0083110  78.7950610
  75.2008070  66.1883910  79.6274760  76.2054760  66.7657730  78.6532330
  75.4701510  58.5203340  75.1539490  74.8150350  58.2514980  74.5099190
  76.3079460  58.4107820  74.7041470  89.9590900  62.2352090  81.1804080
  89.1450740  62.6649250  81.4429870  90.3665100  62.8470500  80.5673130
  88.4191950  53.3144630  69.3757980  88.8376830  53.1275610  68.5354640
  88.1128010  52.4623680  69.6860910  76.5077440  58.9055910  79.6942830
  76.8750480  58.8183310  80.5738850  75.9388260  58.1422460  79.5949690
  76.0593440  55.8165000  83.6001250  75.1649490  55.7831760  83.9394960
  76.5990990  56.0151790  84.3652500  89.7469370  52.5996720  85.4853000
  90.6239550  52.6080120  85.8687000  89.7590210  51.8627560  84.8745350
  74.6839590  55.7302270  71.0964820  73.7803670  55.9932470  70.9216480
  75.1680210  56.0013440  70.3164780  77.2266800  54.7867810  69.0059200
  77.9358500  54.3651030  68.5206480  76.5106740  54.8543040  68.3742550
  76.8740960  50.8407140  68.0461850  77.5969090  51.3816080  68.3643070
  77.1465480  50.5670560  67.1703390  76.5633150  50.0913330  77.9484470
  77.2109340  49.5410710  77.5079630  76.9834990  50.3456480  78.7700280
  90.0166950  66.9870690  74.7072350  90.6126020  66.6655260  74.0306770
  90.2745100  66.5142510  75.4985620  76.3165150  50.2469000  80.6909790
  75.9679970  50.7032820  81.4567970  75.9852850  49.3526130  80.7732220
  77.9229520  63.4188600  84.8562980  77.8799150  63.0481510  85.7377440
  78.0540530  64.3566170  84.9964800  81.6235550  64.9748190  80.4572700
  81.3826910  65.2422750  79.5703220  82.5638190  65.1453920  80.5123560
  83.8289970  51.4380880  84.2129210  83.7678860  52.0302710  84.9624620
  84.7690350  51.3306840  84.0679470  86.4664530  51.0950940  83.8521500
  87.0804940  51.4130230  83.1902580  87.0114090  50.6099530  84.4717360
  76.9885790  49.7745200  83.9660560  77.5368780  49.5933250  83.2026670
  77.0541100  48.9839310  84.5016870  77.7617550  66.3650850  81.9760760
  77.1677870  66.2335550  82.7150800  77.7541390  65.5288990  81.5102860
  87.2072570  49.6583080  80.1790790  86.3332410  49.9918190  79.9763720
  87.0983320  49.1856260  81.0042660  88.1144550  51.8653950  81.5632510
  87.7857910  51.0505710  81.1834240  89.0626850  51.8223760  81.4398200
  90.5679160  67.6365990  78.5370080  90.1082130  68.3881800  78.1628100
  89.9391620  66.9172460  78.4784880  77.3929780  63.7309230  80.9268800
  76.6663840  63.1114520  80.8594750  77.4538930  64.1249840  80.0566880
  80.9974880  65.9454230  77.7118210  81.5139900  65.3341590  77.1866470
  81.6472260  66.4483010  78.2029220  83.7370380  66.8362720  78.5387190
  84.0248190  66.5817020  77.6620200  84.2493600  66.2840080  79.1292760
  84.9547390  50.5752920  79.1183700  84.1719180  51.0498420  79.3980460
  84.6610320  49.6707750  79.0096880  89.5068460  51.2776020  77.1632790
  89.9476550  51.2221120  76.3154390  89.2376050  52.1934030  77.2342970
  75.6759780  67.0483620  74.1365560  75.5081820  66.4154300  74.8347450
  74.8094290  67.2543020  73.7859750  76.2987800  50.8800400  71.6397420
  77.0567160  50.9929280  71.0661450  75.8364970  51.7169600  71.5940850
  82.8401610  52.9939670  74.6299730  82.0276120  52.6196560  74.2895610
  83.3443250  52.2384750  74.9320920  87.3426590  49.6582120  75.8682800
  87.9455960  50.2302330  76.3431320  86.6019580  50.2221560  75.6456700
  90.4861190  50.0603680  71.1423080  90.6811820  50.9587130  71.4090510
  89.6991060  49.8290760  71.6356030  77.2822480  65.7416850  71.5815700
  76.7570100  66.1224880  70.8777660  77.2067060  66.3667620  72.3025410
  78.6712950  51.4064450  70.1799390  79.2005710  50.6194250  70.0507340
  79.3041270  52.0855640  70.4134920  80.8650790  51.1439590  73.2344780
  80.2353530  50.4426900  73.4014910  80.3255930  51.9043720  73.0177940
  83.8042740  67.7578820  85.9055390  84.7310050  67.5223090  85.9491350
  83.7893170  68.5850820  85.4241420  80.9906350  50.4223570  85.6697270
  80.7090620  50.9257170  84.9058090  81.3726050  49.6245320  85.3039400
  79.8815450  67.6899230  70.4564950  80.6134270  67.4058510  69.9088840
  80.1409120  67.4512510  71.3464330  79.0430240  63.8063960  70.4611280
  78.4139120  64.2749060  71.0097110  79.1578070  62.9613180  70.8957470
  87.5921810  49.8377150  86.2477740  87.4787260  50.1571760  87.1429260
  88.4091550  50.2389660  85.9515020  86.4979960  57.8569620  56.6112480
  86.4174010  56.9424230  56.3404190  86.0844380  58.3536690  55.9052190
  84.6298000  59.6348640  58.4921750  83.8540100  59.1549080  58.7820320
  85.2810930  58.9554290  58.3177910  78.6463830  59.9468450  59.3697510
  77.8148710  59.6917160  59.7694020  79.2544810  60.0179220  60.1055430
  88.6505430  64.0408830  57.2720880  88.1886960  63.2696070  57.6008050
  89.4630980  64.0674900  57.7773330  78.6265090  63.9808540  59.5655530
  78.9293130  63.0906280  59.3865750  79.3708680  64.5378760  59.3377780
  77.0555780  54.9070340  53.1539900  76.1672480  55.2486310  53.0519780
  77.3396970  54.7070660  52.2620730  75.0188790  57.5075990  59.0379600
  75.5904900  56.7398190  59.0383240  75.0190330  57.8064750  58.1286210
  84.8768740  66.3266840  56.8924870  84.2580180  66.7824340  56.3219310
  85.7320520  66.4818300  56.4914570  84.0706990  62.3105830  58.4991910
  84.0015270  61.3695770  58.3381040  84.8326850  62.4007240  59.0714480
  76.2613660  52.9160350  60.8248530  76.0816500  52.0186100  61.1051290
  75.8593740  53.4632220  61.4995480  85.1012160  55.1176210  58.7260840
  85.4776980  54.2448090  58.6134510  85.0031670  55.4534910  57.8351280
  79.2317170  53.4901840  54.1878280  79.3383920  54.3905570  54.4947040
  78.3209530  53.4419810  53.8972930  88.8836280  52.6126650  55.6589180
  89.7045900  52.1223220  55.7014660  88.9170360  53.2024310  56.4121020
  76.8800330  55.4120850  59.4330870  77.5610440  55.6759220  60.0518270
  76.5648380  54.5721720  59.7668880  81.0724900  56.4588210  58.5203460
  81.5803120  56.9569180  59.1608480  81.6038140  55.6823410  58.3442820
  79.3561000  51.0986770  62.7866880  79.3579440  51.6159160  61.9812780
  78.5265310  50.6216950  62.7636810  85.7432090  61.2106080  54.2856780
  85.1249360  61.6755530  53.7219500  86.2555340  61.9033560  54.7026290
  80.6063850  60.7381950  60.9640380  80.2733230  61.3650870  61.6061450
  80.7830530  61.2643830  60.1842050  89.1197760  54.5527030  58.4316720
  88.4153330  54.8411920  59.0119830  89.4809920  55.3627140  58.0716280
  79.0376330  52.8096730  60.7937330  79.3793140  53.6538780  60.4991200
  78.0992140  52.9580470  60.9102670  79.8182950  62.7062750  62.7789560
  80.4356950  63.3813830  62.4974010  78.9576070  63.1150730  62.6877060
  75.1115290  61.8962610  51.6596410  74.7343270  62.3849710  50.9281310
  75.3688360  62.5687890  52.2902940  82.7204220  50.2979000  57.1181920
  83.0279200  49.7425890  56.4017420  81.7904920  50.4323460  56.9354910
  88.2719280  66.0146290  59.4089380  88.2846440  65.6108580  58.5411640
  87.7194500  66.7893580  59.3050810  89.5664700  62.7362510  54.4979550
  89.4561030  61.7936840  54.6228970  89.5632950  63.0978150  55.3842310
  87.6704720  60.9176130  60.7371990  88.0873510  60.7036240  59.9025450
  88.3944540  61.1748920  61.3080610  85.1084980  58.3627830  53.8542040
  84.1814260  58.2965210  54.0830510  85.2609800  59.3007960  53.7397280
  85.0954060  54.6344830  50.8509200  84.1557730  54.7958790  50.9361660
  85.4137320  55.3530510  50.3045190  89.1382270  59.9248130  54.3577290
  88.5194690  59.5867680  53.7103590  89.1206720  59.2807890  55.0656480
  88.5808830  56.1032670  61.7743100  88.1680010  56.9286380  62.0283090
  87.8484780  55.5177710  61.5819460  80.7141620  58.8892570  56.6361770
  80.3098620  58.1769820  56.1407670  80.8004740  58.5445810  57.5249810
  81.1823320  62.5760130  58.8000980  80.8851610  61.9705600  58.1208760
  82.1323140  62.6137440  58.6890340  79.4270240  55.6635780  60.4160810
  79.9784830  55.7731120  59.6414060  79.9413750  56.0373380  61.1316040
  89.2708930  66.1492000  62.4624080  88.7939490  66.9564190  62.2696690
  88.5870720  65.4970330  62.6150290  80.2741750  62.3141820  65.4508780
  79.3770280  62.5381790  65.6982180  80.2994620  62.4376760  64.5020180
  87.3146970  59.1634940  51.3650040  87.7540250  58.3257370  51.2187860
  88.0275390  59.7964340  51.4514180  79.1012970  59.1855140  64.0266150
  78.9620740  60.0577940  64.3953550  78.2194330  58.8427950  63.8814090
  85.4242350  64.1031010  55.3331280  85.8638260  64.8455340  54.9186670
  85.3629240  64.3457580  56.2570240  80.8993320  65.1276840  66.2351300
  80.8708750  65.5319790  65.3679730  80.7358290  64.1987200  66.0722900
  77.4146250  57.7837550  54.1368420  77.2943850  58.5099640  53.5249690
  77.1047140  57.0140460  53.6596330  75.0531620  60.9552690  59.9437060
  75.1312040  61.0901460  58.9992780  75.6673300  60.2468580  60.1365180
  76.2979250  62.6552880  56.3543240  75.8907330  62.7967470  55.4996840
  77.1892260  62.3713040  56.1514450  86.1158130  66.8044790  63.2610290
  86.6302800  66.7152800  64.0632720  85.2727210  67.1504490  63.5538200
  88.0912530  67.0900130  52.6894290  87.9313670  66.8003070  53.5876120
  87.9259240  66.3140260  52.1539520  80.5700910  66.8698660  54.4665910
  80.3943390  65.9534200  54.2533710  79.7156650  67.2285950  54.7063710
  87.7938660  64.5987690  51.2492290  87.1003820  64.5964980  50.5894570
  88.5361520  64.1747010  50.8186460  87.3588590  66.2250400  55.3240780
  87.8145540  65.4439780  55.6379400  87.6981110  66.9357220  55.8681960
  75.1091140  61.9966860  62.4831520  75.2722180  61.5272220  61.6650890
  75.5743590  61.4890420  63.1480360  79.8809910  51.1272620  57.5192090
  79.4378060  51.9082160  57.1876610  80.4394900  51.4502510  58.2263030
  84.1679720  53.9941140  63.1227410  83.7059090  54.2024160  63.9347350
  83.7657830  53.1800490  62.8198080  89.1684230  55.2150090  64.2524070
  88.3177820  54.9155840  64.5733140  89.0086020  55.4592100  63.3407890
  86.2633940  56.7151840  66.3522860  86.5887350  55.8815590  66.0125090
  87.0514270  57.2380360  66.5001190  82.9968730  50.7483320  52.3997920
  82.3722910  50.7443190  53.1251230  82.9098850  49.8814280  52.0033890
  81.9185810  51.6719950  59.3781690  82.2158140  52.5782780  59.2973710
  82.4671370  51.1838730  58.7641260  79.6724130  56.2506190  55.2473340
  79.4465050  56.0343360  56.1519960  78.8916660  56.6834650  54.9019310
  86.9021890  56.2569560  53.8463990  86.3030780  56.9805360  53.6627610
  87.4501500  56.1946340  53.0640440  82.1123340  57.1491770  65.9133610
  82.0166940  56.2086500  65.7634010  82.9555320  57.3706840  65.5181680
  85.5086760  54.8933100  55.8767270  85.9016330  55.2105300  55.0635960
  85.8703610  54.0144980  55.9911790  77.2433880  53.5605440  64.0667390
  76.8497270  54.4080650  64.2740170  76.5552280  52.9231810  64.2576030
  83.8178930  53.6440410  67.1364130  83.1277250  53.4512610  67.7710220
  84.5611230  53.9275050  67.6688430  74.5450930  51.4833900  58.0997470
  74.2563980  52.0536760  58.8122450  75.2896690  51.0038350  58.4628700
  74.7321160  55.4254020  49.3100190  74.6495830  56.3684780  49.4515180
  74.3804220  55.2828930  48.4312540  86.0941900  57.4838850  59.9718050
  85.3623020  57.9925660  60.3208150  85.6966240  56.6668830  59.6706830
  82.5319290  54.1593050  58.3770540  82.5355350  53.7183000  57.5275080
  83.4270410  54.4810380  58.4842360  78.3821670  54.0419540  57.3364750
  78.0421720  54.5194770  58.0931800  77.6198990  53.5884660  56.9765850
  82.5939440  55.1605130  51.3677300  82.7152260  55.1191610  52.3163120
  82.2087950  56.0229280  51.2124030  86.5567810  52.9372530  59.3840990
  86.5740550  53.3881180  60.2282840  86.3083390  52.0378170  59.5974430
  81.6060940  57.4706270  50.7660600  81.0377840  57.0224520  50.1396510
  82.3149940  57.8299050  50.2325750  89.9838560  50.3504710  65.2227370
  90.3084330  49.6194370  65.7485350  90.0195070  50.0318350  64.3208360
  76.6830120  61.3718290  64.6427330  76.2984910  60.7311960  65.2410290
  76.9942310  62.0754410  65.2122060  82.8327260  58.2194830  60.1235950
  83.1997390  57.7453400  60.8697290  82.6432320  59.0936400  60.4644290
  75.6967750  52.9638520  56.2529420  75.4114670  52.5994190  57.0908040
  75.6346610  52.2318980  55.6392560  80.6226630  57.2603470  62.4420160
  80.3183700  58.1395450  62.6670520  81.5773090  57.3203260  62.4777600
  79.1508420  61.4664460  53.0387010  78.3770680  60.9262080  52.8785730
  79.8803050  60.9471070  52.7004770  89.9096400  60.4629820  58.8313400
  90.6295520  60.9585110  58.4409510  89.7078220  59.7847710  58.1867270
  85.3706340  51.8567780  52.9742790  84.5570950  51.3580950  52.8988100
  85.1768290  52.6966030  52.5579140  85.2915200  60.5338880  64.7182400
  85.2252510  59.6134550  64.4639990  84.6620340  60.6314320  65.4327040
  88.0854730  56.2287430  51.2704950  88.9734350  56.5404660  51.0956290
  88.0559820  55.3559680  50.8785530  79.1945820  61.1344840  56.6765820
  79.7124490  60.3313100  56.6222710  78.7429840  61.0723980  57.5182650
  84.0815320  62.4011120  51.9493120  84.4231020  63.1453350  51.4536440
  83.2528030  62.7142240  52.3117950  76.6790360  58.1006210  63.5891520
  76.3205300  58.7660060  64.1764860  76.3844920  57.2689760  63.9604140
  79.8803480  58.5590450  66.4731070  79.5803620  58.7047630  65.5758890
  80.6514720  57.9995740  66.3804460  85.2231930  63.3559450  64.4686200
  85.2376470  62.4240410  64.2505110  84.5157030  63.4419210  65.1075970
  86.9642730  61.7226960  57.3138630  87.3166550  61.1255090  56.6540000
  86.0805060  61.3971190  57.4846880  83.0506010  62.4824650  54.7209040
  83.7377140  63.0293860  55.1016630  82.2638430  63.0265380  54.7558650
  75.1898410  58.0997470  50.2126120  76.0593260  58.3822270  50.4962040
  74.6988730  58.9133340  50.0974930  82.3533220  59.4870680  54.3334400
  82.8096000  60.2975930  54.5594590  82.0021430  59.1693820  55.1652890
  84.6565830  64.9977020  61.5626700  85.3008050  65.2036400  62.2400120
  85.0195270  64.2365420  61.1097550  78.2545000  49.8308330  54.8056920
  78.1259630  49.8226230  55.7541840  77.4307020  50.1691420  54.4547930
  85.9297910  63.0009370  60.2804150  86.5720140  62.3002530  60.3936320
  86.4547260  63.7807810  60.1001040  89.7753630  63.2857990  50.0043290
  89.5491210  62.5688430  50.5967930  89.3849830  63.0370430  49.1665040
  87.7035530  63.8004270  63.4840210  88.0391770  64.3870960  64.1618130
  86.7835870  63.6696980  63.7138000  75.5569660  67.3124850  50.7787750
  75.9167300  67.9114190  50.1245020  75.4162000  67.8584740  51.5522780
  75.2538930  51.5899450  64.2663620  74.5397450  51.7896370  64.8716230
  75.6733970  50.8139020  64.6378420  89.3569880  61.2029930  51.6657450
  89.0691580  61.6642620  52.4535330  90.1522050  60.7427700  51.9341670
  75.5411520  65.5779710  65.2530150  75.6502640  64.6374450  65.1125540
  74.8892080  65.8434460  64.6043880  83.5324110  63.8495600  66.6528270
  83.2120980  63.1304840  67.1973960  82.8582470  64.5250670  66.7264330
  81.5738280  64.6956050  51.5961420  81.5648380  65.4285740  50.9805930
  80.6536640  64.4487630  51.6888380  77.1744920  59.9170940  52.3408180
  76.5672870  60.6569840  52.3503480  77.6494270  60.0070300  51.5146380
  86.7477710  54.0821760  62.0165070  87.1158530  53.2616970  62.3444640
  85.8875910  54.1423650  62.4320720  90.1139740  53.0378700  52.8252630
  89.4852900  53.1424370  52.1110860  89.6191660  53.2575480  53.6146510
  84.5597880  64.7584290  50.2586610  84.6609860  64.5548280  49.3288590
  83.6599620  64.5042570  50.4634390  82.0823770  55.3164650  54.2410510
  81.3739920  55.7850990  54.6824120  82.3668250  54.6586660  54.8755700
  83.7079700  56.7361350  62.2403040  84.2064950  57.2107170  62.9054890
  83.8502650  55.8124870  62.4473070  86.1139200  52.0415310  55.6806300
  85.9906980  52.0601440  54.7315810  87.0623760  52.0894250  55.8004700
  83.2015990  67.2770610  54.9534280  83.4557490  67.2392000  54.0313650
  82.2528470  67.1503940  54.9462530  80.2858790  53.6249730  51.6161220
  81.1349320  54.0619880  51.5501410  79.9190060  53.9369990  52.4433280
  89.2068570  58.1962490  56.5292790  88.2658710  58.2112720  56.7040480
  89.5212640  57.4098450  56.9753090  79.1850210  59.8782090  50.0896750
  79.9513480  59.7663450  50.6522180  79.2624900  59.1820060  49.4373520
  77.8796970  57.3107160  50.7729640  77.9600560  56.3634670  50.8847040
  78.7716720  57.6414040  50.8790300  78.6811680  67.4602550  57.8764180
  79.4174160  66.9118010  58.1472750  79.0652600  68.3258560  57.7370170
  75.5657160  63.5276120  53.7505690  74.6396940  63.7697260  53.7411100
  76.0313590  64.3550380  53.6290440  77.6869960  66.6448620  67.0649760
  78.4882690  66.9660670  67.4785160  77.1721780  66.2844200  67.7869670
  81.7913990  66.6332860  49.6989750  82.5842600  66.9221690  49.2471540
  81.2718340  66.2025030  49.0202230  86.5234590  62.7528490  67.0125170
  85.9172750  62.7760090  66.2720920  86.2188700  62.0211530  67.5492420
  87.9534960  66.4808780  65.6234580  88.9056710  66.3966800  65.5734820
  87.8063180  67.1450490  66.2968370  75.4067770  59.1322080  66.0085810
  75.9106790  58.5529360  66.5802040  74.6675190  59.4162310  66.5462180
  82.3091390  61.8536270  49.5632100  82.2042030  61.2388620  50.2893480
  82.1415610  61.3302160  48.7795110  82.4605710  60.5393070  65.5421330
  81.6951380  61.1078070  65.4576000  82.6421670  60.2469280  64.6489560
  85.5494120  60.9156300  50.1674090  85.0004220  61.3625600  50.8116830
  86.1713380  60.4105550  50.6911760  89.6029060  62.2698400  66.0996350
  90.3438530  62.6074160  65.5963810  88.8401740  62.4390460  65.5466120
  77.4390850  57.2751670  66.9035880  77.4796190  56.9765540  67.8121110
  78.2936350  57.6759280  66.7443400  81.2169240  59.8747220  52.0639390
  81.6385660  59.7087090  52.9070780  81.3420080  59.0647450  51.5694530
  79.3796660  55.8543770  64.8710370  78.8493120  55.3634720  64.2433710
  80.0484730  56.2827970  64.3368300  83.7296880  58.8984830  49.3116490
  84.2502540  58.1833850  48.9457640  84.3765280  59.5370700  49.6117000
  88.2774720  60.3213230  64.6351560  88.6915740  60.4758310  65.4841980
  87.3425720  60.4468450  64.7977340  88.7496890  57.6609390  66.6390710
  89.3317660  56.9061710  66.5511190  88.9258660  58.1916830  65.8622190
  79.8668960  52.8206140  64.9507660  79.7725830  52.2026890  64.2258530
  79.2866350  53.5472430  64.7237570  82.6330400  51.3779380  61.9835050
  82.1847700  51.4003640  61.1380600  81.9995600  50.9798400  62.5805350
  83.0389950  60.2733710  62.6047490  83.4578060  61.1166440  62.4323730
  82.1198580  60.4105750  62.3754270  85.3753850  58.0049890  63.9885330
  85.4950060  57.4091030  64.7280170  86.2347850  58.0419580  63.5686630
  87.7141750  58.5587080  62.5647840  87.1876970  59.0829700  61.9612980
  88.0573090  59.1914470  63.1957570  80.1128140  55.9480450  49.0097550
  79.9117200  55.0847810  49.3710890  79.9420190  55.8613810  48.0719150
  80.8897370  66.5786720  63.7205220  80.3518460  67.3032780  63.4013920
  81.1431330  66.1017060  62.9302560  82.1422620  54.5471240  65.2461150
  82.7322310  54.2387090  65.9338970  81.3242860  54.0750990  65.4021050
  86.9616050  54.1637050  65.4794170  86.2731570  53.5018590  65.4144160
  87.6822070  53.7175320  65.9242630  87.5916450  50.7588680  51.5384430
  87.8718740  49.9156580  51.8943850  86.8182180  50.9911790  52.0523180
  78.9110940  53.0481070  48.9975430  79.2136840  53.0548500  48.0894580
  79.6505530  52.6978930  49.4943090  83.7459580  67.8137930  63.9791870
  83.6718280  68.7173070  64.2864240  82.8438420  67.4949830  63.9513940
  82.1295870  51.9915690  49.9831630  81.7817870  51.3139680  49.4034080
  82.3308640  51.5305200  50.7975020  84.2944910  66.9796440  51.6018230
  85.1895700  67.3181410  51.6236990  84.3262540  66.2575850  50.9742510
  77.9341070  62.3523490  49.8305230  78.3715940  62.8953160  50.4862810
  78.4188800  61.5270440  49.8401570  75.1486870  65.1412520  57.2825490
  75.4789880  64.2733580  57.0504130  75.5777870  65.3471040  58.1130450
  79.7448790  63.4721530  54.9427460  79.4444330  63.3486500  55.8431370
  79.6386280  62.6130120  54.5343190  75.6377080  66.0083110  60.0207120
  75.2008070  66.1883910  60.8531270  76.2054760  66.7657730  59.8788840
  75.4701510  58.5203340  56.3796000  74.8150350  58.2514980  55.7355700
  76.3079460  58.4107820  55.9297980  89.9590900  62.2352090  62.4060590
  89.1450740  62.6649250  62.6686380  90.3665100  62.8470500  61.7929640
  88.4191950  53.3144630  50.6014490  88.8376830  53.1275610  49.7611150
  88.1128010  52.4623680  50.9117420  76.5077440  58.9055910  60.9199340
  76.8750480  58.8183310  61.7995360  75.9388260  58.1422460  60.8206200
  76.0593440  55.8165000  64.8257760  75.1649490  55.7831760  65.1651470
  76.5990990  56.0151790  65.5909010  89.7469370  52.5996720  66.7109510
  90.6239550  52.6080120  67.0943510  89.7590210  51.8627560  66.1001860
  74.6839590  55.7302270  52.3221330  73.7803670  55.9932470  52.1472990
  75.1680210  56.0013440  51.5421290  77.2266800  54.7867810  50.2315710
  77.9358500  54.3651030  49.7462990  76.5106740  54.8543040  49.5999060
  76.8740960  50.8407140  49.2718360  77.5969090  51.3816080  49.5899580
  77.1465480  50.5670560  48.3959900  76.5633150  50.0913330  59.1740980
  77.2109340  49.5410710  58.7336140  76.9834990  50.3456480  59.9956790
  90.0166950  66.9870690  55.9328860  90.6126020  66.6655260  55.2563280
  90.2745100  66.5142510  56.7242130  76.3165150  50.2469000  61.9166300
  75.9679970  50.7032820  62.6824480  75.9852850  49.3526130  61.9988730
  77.9229520  63.4188600  66.0819490  77.8799150  63.0481510  66.9633950
  78.0540530  64.3566170  66.2221310  81.6235550  64.9748190  61.6829210
  81.3826910  65.2422750  60.7959730  82.5638190  65.1453920  61.7380070
  83.8289970  51.4380880  65.4385720  83.7678860  52.0302710  66.1881130
  84.7690350  51.3306840  65.2935980  86.4664530  51.0950940  65.0778010
  87.0804940  51.4130230  64.4159090  87.0114090  50.6099530  65.6973870
  76.9885790  49.7745200  65.1917070  77.5368780  49.5933250  64.4283180
  77.0541100  48.9839310  65.7273380  77.7617550  66.3650850  63.2017270
  77.1677870  66.2335550  63.9407310  77.7541390  65.5288990  62.7359370
  87.2072570  49.6583080  61.4047300  86.3332410  49.9918190  61.2020230
  87.0983320  49.1856260  62.2299170  88.1144550  51.8653950  62.7889020
  87.7857910  51.0505710  62.4090750  89.0626850  51.8223760  62.6654710
  90.5679160  67.6365990  59.7626590  90.1082130  68.3881800  59.3884610
  89.9391620  66.9172460  59.7041390  77.3929780  63.7309230  62.1525310
  76.6663840  63.1114520  62.0851260  77.4538930  64.1249840  61.2823390
  80.9974880  65.9454230  58.9374720  81.5139900  65.3341590  58.4122980
  81.6472260  66.4483010  59.4285730  83.7370380  66.8362720  59.7643700
  84.0248190  66.5817020  58.8876710  84.2493600  66.2840080  60.3549270
  84.9547390  50.5752920  60.3440210  84.1719180  51.0498420  60.6236970
  84.6610320  49.6707750  60.2353390  89.5068460  51.2776020  58.3889300
  89.9476550  51.2221120  57.5410900  89.2376050  52.1934030  58.4599480
  75.6759780  67.0483620  55.3622070  75.5081820  66.4154300  56.0603960
  74.8094290  67.2543020  55.0116260  76.2987800  50.8800400  52.8653930
  77.0567160  50.9929280  52.2917960  75.8364970  51.7169600  52.8197360
  82.8401610  52.9939670  55.8556240  82.0276120  52.6196560  55.5152120
  83.3443250  52.2384750  56.1577430  87.3426590  49.6582120  57.0939310
  87.9455960  50.2302330  57.5687830  86.6019580  50.2221560  56.8713210
  90.4861190  50.0603680  52.3679590  90.6811820  50.9587130  52.6347020
  89.6991060  49.8290760  52.8612540  77.2822480  65.7416850  52.8072210
  76.7570100  66.1224880  52.1034170  77.2067060  66.3667620  53.5281920
  78.6712950  51.4064450  51.4055900  79.2005710  50.6194250  51.2763850
  79.3041270  52.0855640  51.6391430  80.8650790  51.1439590  54.4601290
  80.2353530  50.4426900  54.6271420  80.3255930  51.9043720  54.2434450
  83.8042740  67.7578820  67.1311900  84.7310050  67.5223090  67.1747860
  83.7893170  68.5850820  66.6497930  80.9906350  50.4223570  66.8953780
  80.7090620  50.9257170  66.1314600  81.3726050  49.6245320  66.5295910
  79.8815450  67.6899230  51.6821460  80.6134270  67.4058510  51.1345350
  80.1409120  67.4512510  52.5720840  79.0430240  63.8063960  51.6867790
  78.4139120  64.2749060  52.2353620  79.1578070  62.9613180  52.1213980
  87.5921810  49.8377150  67.4734250  87.4787260  50.1571760  68.3685770
  88.4091550  50.2389660  67.1771530  86.4979960  57.8569620  37.8368990
  86.4174010  56.9424230  37.5660700  86.0844380  58.3536690  37.1308700
  84.6298000  59.6348640  39.7178260  83.8540100  59.1549080  40.0076830
  85.2810930  58.9554290  39.5434420  78.6463830  59.9468450  40.5954020
  77.8148710  59.6917160  40.9950530  79.2544810  60.0179220  41.3311940
  88.6505430  64.0408830  38.4977390  88.1886960  63.2696070  38.8264560
  89.4630980  64.0674900  39.0029840  78.6265090  63.9808540  40.7912040
  78.9293130  63.0906280  40.6122260  79.3708680  64.5378760  40.5634290
  77.0555780  54.9070340  34.3796410  76.1672480  55.2486310  34.2776290
  77.3396970  54.7070660  33.4877240  75.0188790  57.5075990  40.2636110
  75.5904900  56.7398190  40.2639750  75.0190330  57.8064750  39.3542720
  84.8768740  66.3266840  38.1181380  84.2580180  66.7824340  37.5475820
  85.7320520  66.4818300  37.7171080  84.0706990  62.3105830  39.7248420
  84.0015270  61.3695770  39.5637550  84.8326850  62.4007240  40.2970990
  76.2613660  52.9160350  42.0505040  76.0816500  52.0186100  42.3307800
  75.8593740  53.4632220  42.7251990  85.1012160  55.1176210  39.9517350
  85.4776980  54.2448090  39.8391020  85.0031670  55.4534910  39.0607790
  79.2317170  53.4901840  35.4134790  79.3383920  54.3905570  35.7203550
  78.3209530  53.4419810  35.1229440  88.8836280  52.6126650  36.8845690
  89.7045900  52.1223220  36.9271170  88.9170360  53.2024310  37.6377530
  76.8800330  55.4120850  40.6587380  77.5610440  55.6759220  41.2774780
  76.5648380  54.5721720  40.9925390  81.0724900  56.4588210  39.7459970
  81.5803120  56.9569180  40.3864990  81.6038140  55.6823410  39.5699330
  79.3561000  51.0986770  44.0123390  79.3579440  51.6159160  43.2069290
  78.5265310  50.6216950  43.9893320  85.7432090  61.2106080  35.5113290
  85.1249360  61.6755530  34.9476010  86.2555340  61.9033560  35.9282800
  80.6063850  60.7381950  42.1896890  80.2733230  61.3650870  42.8317960
  80.7830530  61.2643830  41.4098560  89.1197760  54.5527030  39.6573230
  88.4153330  54.8411920  40.2376340  89.4809920  55.3627140  39.2972790
  79.0376330  52.8096730  42.0193840  79.3793140  53.6538780  41.7247710
  78.0992140  52.9580470  42.1359180  79.8182950  62.7062750  44.0046070
  80.4356950  63.3813830  43.7230520  78.9576070  63.1150730  43.9133570
  75.1115290  61.8962610  32.8852920  74.7343270  62.3849710  32.1537820
  75.3688360  62.5687890  33.5159450  82.7204220  50.2979000  38.3438430
  83.0279200  49.7425890  37.6273930  81.7904920  50.4323460  38.1611420
  88.2719280  66.0146290  40.6345890  88.2846440  65.6108580  39.7668150
  87.7194500  66.7893580  40.5307320  89.5664700  62.7362510  35.7236060
  89.4561030  61.7936840  35.8485480  89.5632950  63.0978150  36.6098820
  87.6704720  60.9176130  41.9628500  88.0873510  60.7036240  41.1281960
  88.3944540  61.1748920  42.5337120  85.1084980  58.3627830  35.0798550
  84.1814260  58.2965210  35.3087020  85.2609800  59.3007960  34.9653790
  85.0954060  54.6344830  32.0765710  84.1557730  54.7958790  32.1618170
  85.4137320  55.3530510  31.5301700  89.1382270  59.9248130  35.5833800
  88.5194690  59.5867680  34.9360100  89.1206720  59.2807890  36.2912990
  88.5808830  56.1032670  42.9999610  88.1680010  56.9286380  43.2539600
  87.8484780  55.5177710  42.8075970  80.7141620  58.8892570  37.8618280
  80.3098620  58.1769820  37.3664180  80.8004740  58.5445810  38.7506320
  81.1823320  62.5760130  40.0257490  80.8851610  61.9705600  39.3465270
  82.1323140  62.6137440  39.9146850  79.4270240  55.6635780  41.6417320
  79.9784830  55.7731120  40.8670570  79.9413750  56.0373380  42.3572550
  89.2708930  66.1492000  43.6880590  88.7939490  66.9564190  43.4953200
  88.5870720  65.4970330  43.8406800  80.2741750  62.3141820  46.6765290
  79.3770280  62.5381790  46.9238690  80.2994620  62.4376760  45.7276690
  87.3146970  59.1634940  32.5906550  87.7540250  58.3257370  32.4444370
  88.0275390  59.7964340  32.6770690  79.1012970  59.1855140  45.2522660
  78.9620740  60.0577940  45.6210060  78.2194330  58.8427950  45.1070600
  85.4242350  64.1031010  36.5587790  85.8638260  64.8455340  36.1443180
  85.3629240  64.3457580  37.4826750  80.8993320  65.1276840  47.4607810
  80.8708750  65.5319790  46.5936240  80.7358290  64.1987200  47.2979410
  77.4146250  57.7837550  35.3624930  77.2943850  58.5099640  34.7506200
  77.1047140  57.0140460  34.8852840  75.0531620  60.9552690  41.1693570
  75.1312040  61.0901460  40.2249290  75.6673300  60.2468580  41.3621690
  76.2979250  62.6552880  37.5799750  75.8907330  62.7967470  36.7253350
  77.1892260  62.3713040  37.3770960  86.1158130  66.8044790  44.4866800
  86.6302800  66.7152800  45.2889230  85.2727210  67.1504490  44.7794710
  88.0912530  67.0900130  33.9150800  87.9313670  66.8003070  34.8132630
  87.9259240  66.3140260  33.3796030  80.5700910  66.8698660  35.6922420
  80.3943390  65.9534200  35.4790220  79.7156650  67.2285950  35.9320220
  87.7938660  64.5987690  32.4748800  87.1003820  64.5964980  31.8151080
  88.5361520  64.1747010  32.0442970  87.3588590  66.2250400  36.5497290
  87.8145540  65.4439780  36.8635910  87.6981110  66.9357220  37.0938470
  75.1091140  61.9966860  43.7088030  75.2722180  61.5272220  42.8907400
  75.5743590  61.4890420  44.3736870  79.8809910  51.1272620  38.7448600
  79.4378060  51.9082160  38.4133120  80.4394900  51.4502510  39.4519540
  84.1679720  53.9941140  44.3483920  83.7059090  54.2024160  45.1603860
  83.7657830  53.1800490  44.0454590  89.1684230  55.2150090  45.4780580
  88.3177820  54.9155840  45.7989650  89.0086020  55.4592100  44.5664400
  86.2633940  56.7151840  47.5779370  86.5887350  55.8815590  47.2381600
  87.0514270  57.2380360  47.7257700  82.9968730  50.7483320  33.6254430
  82.3722910  50.7443190  34.3507740  82.9098850  49.8814280  33.2290400
  81.9185810  51.6719950  40.6038200  82.2158140  52.5782780  40.5230220
  82.4671370  51.1838730  39.9897770  79.6724130  56.2506190  36.4729850
  79.4465050  56.0343360  37.3776470  78.8916660  56.6834650  36.1275820
  86.9021890  56.2569560  35.0720500  86.3030780  56.9805360  34.8884120
  87.4501500  56.1946340  34.2896950  82.1123340  57.1491770  47.1390120
  82.0166940  56.2086500  46.9890520  82.9555320  57.3706840  46.7438190
  85.5086760  54.8933100  37.1023780  85.9016330  55.2105300  36.2892470
  85.8703610  54.0144980  37.2168300  77.2433880  53.5605440  45.2923900
  76.8497270  54.4080650  45.4996680  76.5552280  52.9231810  45.4832540
  83.8178930  53.6440410  48.3620640  83.1277250  53.4512610  48.9966730
  84.5611230  53.9275050  48.8944940  74.5450930  51.4833900  39.3253980
  74.2563980  52.0536760  40.0378960  75.2896690  51.0038350  39.6885210
  74.7321160  55.4254020  30.5356700  74.6495830  56.3684780  30.6771690
  74.3804220  55.2828930  29.6569050  86.0941900  57.4838850  41.1974560
  85.3623020  57.9925660  41.5464660  85.6966240  56.6668830  40.8963340
  82.5319290  54.1593050  39.6027050  82.5355350  53.7183000  38.7531590
  83.4270410  54.4810380  39.7098870  78.3821670  54.0419540  38.5621260
  78.0421720  54.5194770  39.3188310  77.6198990  53.5884660  38.2022360
  82.5939440  55.1605130  32.5933810  82.7152260  55.1191610  33.5419630
  82.2087950  56.0229280  32.4380540  86.5567810  52.9372530  40.6097500
  86.5740550  53.3881180  41.4539350  86.3083390  52.0378170  40.8230940
  81.6060940  57.4706270  31.9917110  81.0377840  57.0224520  31.3653020
  82.3149940  57.8299050  31.4582260  89.9838560  50.3504710  46.4483880
  90.3084330  49.6194370  46.9741860  90.0195070  50.0318350  45.5464870
  76.6830120  61.3718290  45.8683840  76.2984910  60.7311960  46.4666800
  76.9942310  62.0754410  46.4378570  82.8327260  58.2194830  41.3492460
  83.1997390  57.7453400  42.0953800  82.6432320  59.0936400  41.6900800
  75.6967750  52.9638520  37.4785930  75.4114670  52.5994190  38.3164550
  75.6346610  52.2318980  36.8649070  80.6226630  57.2603470  43.6676670
  80.3183700  58.1395450  43.8927030  81.5773090  57.3203260  43.7034110
  79.1508420  61.4664460  34.2643520  78.3770680  60.9262080  34.1042240
  79.8803050  60.9471070  33.9261280  89.9096400  60.4629820  40.0569910
  90.6295520  60.9585110  39.6666020  89.7078220  59.7847710  39.4123780
  85.3706340  51.8567780  34.1999300  84.5570950  51.3580950  34.1244610
  85.1768290  52.6966030  33.7835650  85.2915200  60.5338880  45.9438910
  85.2252510  59.6134550  45.6896500  84.6620340  60.6314320  46.6583550
  88.0854730  56.2287430  32.4961460  88.9734350  56.5404660  32.3212800
  88.0559820  55.3559680  32.1042040  79.1945820  61.1344840  37.9022330
  79.7124490  60.3313100  37.8479220  78.7429840  61.0723980  38.7439160
  84.0815320  62.4011120  33.1749630  84.4231020  63.1453350  32.6792950
  83.2528030  62.7142240  33.5374460  76.6790360  58.1006210  44.8148030
  76.3205300  58.7660060  45.4021370  76.3844920  57.2689760  45.1860650
  79.8803480  58.5590450  47.6987580  79.5803620  58.7047630  46.8015400
  80.6514720  57.9995740  47.6060970  85.2231930  63.3559450  45.6942710
  85.2376470  62.4240410  45.4761620  84.5157030  63.4419210  46.3332480
  86.9642730  61.7226960  38.5395140  87.3166550  61.1255090  37.8796510
  86.0805060  61.3971190  38.7103390  83.0506010  62.4824650  35.9465550
  83.7377140  63.0293860  36.3273140  82.2638430  63.0265380  35.9815160
  75.1898410  58.0997470  31.4382630  76.0593260  58.3822270  31.7218550
  74.6988730  58.9133340  31.3231440  82.3533220  59.4870680  35.5590910
  82.8096000  60.2975930  35.7851100  82.0021430  59.1693820  36.3909400
  84.6565830  64.9977020  42.7883210  85.3008050  65.2036400  43.4656630
  85.0195270  64.2365420  42.3354060  78.2545000  49.8308330  36.0313430
  78.1259630  49.8226230  36.9798350  77.4307020  50.1691420  35.6804440
  85.9297910  63.0009370  41.5060660  86.5720140  62.3002530  41.6192830
  86.4547260  63.7807810  41.3257550  89.7753630  63.2857990  31.2299800
  89.5491210  62.5688430  31.8224440  89.3849830  63.0370430  30.3921550
  87.7035530  63.8004270  44.7096720  88.0391770  64.3870960  45.3874640
  86.7835870  63.6696980  44.9394510  75.5569660  67.3124850  32.0044260
  75.9167300  67.9114190  31.3501530  75.4162000  67.8584740  32.7779290
  75.2538930  51.5899450  45.4920130  74.5397450  51.7896370  46.0972740
  75.6733970  50.8139020  45.8634930  89.3569880  61.2029930  32.8913960
  89.0691580  61.6642620  33.6791840  90.1522050  60.7427700  33.1598180
  75.5411520  65.5779710  46.4786660  75.6502640  64.6374450  46.3382050
  74.8892080  65.8434460  45.8300390  83.5324110  63.8495600  47.8784780
  83.2120980  63.1304840  48.4230470  82.8582470  64.5250670  47.9520840
  81.5738280  64.6956050  32.8217930  81.5648380  65.4285740  32.2062440
  80.6536640  64.4487630  32.9144890  77.1744920  59.9170940  33.5664690
  76.5672870  60.6569840  33.5759990  77.6494270  60.0070300  32.7402890
  86.7477710  54.0821760  43.2421580  87.1158530  53.2616970  43.5701150
  85.8875910  54.1423650  43.6577230  90.1139740  53.0378700  34.0509140
  89.4852900  53.1424370  33.3367370  89.6191660  53.2575480  34.8403020
  84.5597880  64.7584290  31.4843120  84.6609860  64.5548280  30.5545100
  83.6599620  64.5042570  31.6890900  82.0823770  55.3164650  35.4667020
  81.3739920  55.7850990  35.9080630  82.3668250  54.6586660  36.1012210
  83.7079700  56.7361350  43.4659550  84.2064950  57.2107170  44.1311400
  83.8502650  55.8124870  43.6729580  86.1139200  52.0415310  36.9062810
  85.9906980  52.0601440  35.9572320  87.0623760  52.0894250  37.0261210
  83.2015990  67.2770610  36.1790790  83.4557490  67.2392000  35.2570160
  82.2528470  67.1503940  36.1719040  80.2858790  53.6249730  32.8417730
  81.1349320  54.0619880  32.7757920  79.9190060  53.9369990  33.6689790
  89.2068570  58.1962490  37.7549300  88.2658710  58.2112720  37.9296990
  89.5212640  57.4098450  38.2009600  79.1850210  59.8782090  31.3153260
  79.9513480  59.7663450  31.8778690  79.2624900  59.1820060  30.6630030
  77.8796970  57.3107160  31.9986150  77.9600560  56.3634670  32.1103550
  78.7716720  57.6414040  32.1046810  78.6811680  67.4602550  39.1020690
  79.4174160  66.9118010  39.3729260  79.0652600  68.3258560  38.9626680
  75.5657160  63.5276120  34.9762200  74.6396940  63.7697260  34.9667610
  76.0313590  64.3550380  34.8546950  77.6869960  66.6448620  48.2906270
  78.4882690  66.9660670  48.7041670  77.1721780  66.2844200  49.0126180
  81.7913990  66.6332860  30.9246260  82.5842600  66.9221690  30.4728050
  81.2718340  66.2025030  30.2458740  86.5234590  62.7528490  48.2381680
  85.9172750  62.7760090  47.4977430  86.2188700  62.0211530  48.7748930
  87.9534960  66.4808780  46.8491090  88.9056710  66.3966800  46.7991330
  87.8063180  67.1450490  47.5224880  75.4067770  59.1322080  47.2342320
  75.9106790  58.5529360  47.8058550  74.6675190  59.4162310  47.7718690
  82.3091390  61.8536270  30.7888610  82.2042030  61.2388620  31.5149990
  82.1415610  61.3302160  30.0051620  82.4605710  60.5393070  46.7677840
  81.6951380  61.1078070  46.6832510  82.6421670  60.2469280  45.8746070
  85.5494120  60.9156300  31.3930600  85.0004220  61.3625600  32.0373340
  86.1713380  60.4105550  31.9168270  89.6029060  62.2698400  47.3252860
  90.3438530  62.6074160  46.8220320  88.8401740  62.4390460  46.7722630
  77.4390850  57.2751670  48.1292390  77.4796190  56.9765540  49.0377620
  78.2936350  57.6759280  47.9699910  81.2169240  59.8747220  33.2895900
  81.6385660  59.7087090  34.1327290  81.3420080  59.0647450  32.7951040
  79.3796660  55.8543770  46.0966880  78.8493120  55.3634720  45.4690220
  80.0484730  56.2827970  45.5624810  83.7296880  58.8984830  30.5373000
  84.2502540  58.1833850  30.1714150  84.3765280  59.5370700  30.8373510
  88.2774720  60.3213230  45.8608070  88.6915740  60.4758310  46.7098490
  87.3425720  60.4468450  46.0233850  88.7496890  57.6609390  47.8647220
  89.3317660  56.9061710  47.7767700  88.9258660  58.1916830  47.0878700
  79.8668960  52.8206140  46.1764170  79.7725830  52.2026890  45.4515040
  79.2866350  53.5472430  45.9494080  82.6330400  51.3779380  43.2091560
  82.1847700  51.4003640  42.3637110  81.9995600  50.9798400  43.8061860
  83.0389950  60.2733710  43.8304000  83.4578060  61.1166440  43.6580240
  82.1198580  60.4105750  43.6010780  85.3753850  58.0049890  45.2141840
  85.4950060  57.4091030  45.9536680  86.2347850  58.0419580  44.7943140
  87.7141750  58.5587080  43.7904350  87.1876970  59.0829700  43.1869490
  88.0573090  59.1914470  44.4214080  80.1128140  55.9480450  30.2354060
  79.9117200  55.0847810  30.5967400  79.9420190  55.8613810  29.2975660
  80.8897370  66.5786720  44.9461730  80.3518460  67.3032780  44.6270430
  81.1431330  66.1017060  44.1559070  82.1422620  54.5471240  46.4717660
  82.7322310  54.2387090  47.1595480  81.3242860  54.0750990  46.6277560
  86.9616050  54.1637050  46.7050680  86.2731570  53.5018590  46.6400670
  87.6822070  53.7175320  47.1499140  87.5916450  50.7588680  32.7640940
  87.8718740  49.9156580  33.1200360  86.8182180  50.9911790  33.2779690
  78.9110940  53.0481070  30.2231940  79.2136840  53.0548500  29.3151090
  79.6505530  52.6978930  30.7199600  83.7459580  67.8137930  45.2048380
  83.6718280  68.7173070  45.5120750  82.8438420  67.4949830  45.1770450
  82.1295870  51.9915690  31.2088140  81.7817870  51.3139680  30.6290590
  82.3308640  51.5305200  32.0231530  84.2944910  66.9796440  32.8274740
  85.1895700  67.3181410  32.8493500  84.3262540  66.2575850  32.1999020
  77.9341070  62.3523490  31.0561740  78.3715940  62.8953160  31.7119320
  78.4188800  61.5270440  31.0658080  75.1486870  65.1412520  38.5082000
  75.4789880  64.2733580  38.2760640  75.5777870  65.3471040  39.3386960
  79.7448790  63.4721530  36.1683970  79.4444330  63.3486500  37.0687880
  79.6386280  62.6130120  35.7599700  75.6377080  66.0083110  41.2463630
  75.2008070  66.1883910  42.0787780  76.2054760  66.7657730  41.1045350
  75.4701510  58.5203340  37.6052510  74.8150350  58.2514980  36.9612210
  76.3079460  58.4107820  37.1554490  89.9590900  62.2352090  43.6317100
  89.1450740  62.6649250  43.8942890  90.3665100  62.8470500  43.0186150
  88.4191950  53.3144630  31.8271000  88.8376830  53.1275610  30.9867660
  88.1128010  52.4623680  32.1373930  76.5077440  58.9055910  42.1455850
  76.8750480  58.8183310  43.0251870  75.9388260  58.1422460  42.0462710
  76.0593440  55.8165000  46.0514270  75.1649490  55.7831760  46.3907980
  76.5990990  56.0151790  46.8165520  89.7469370  52.5996720  47.9366020
  90.6239550  52.6080120  48.3200020  89.7590210  51.8627560  47.3258370
  74.6839590  55.7302270  33.5477840  73.7803670  55.9932470  33.3729500
  75.1680210  56.0013440  32.7677800  77.2266800  54.7867810  31.4572220
  77.9358500  54.3651030  30.9719500  76.5106740  54.8543040  30.8255570
  76.8740960  50.8407140  30.4974870  77.5969090  51.3816080  30.8156090
  77.1465480  50.5670560  29.6216410  76.5633150  50.0913330  40.3997490
  77.2109340  49.5410710  39.9592650  76.9834990  50.3456480  41.2213300
  90.0166950  66.9870690  37.1585370  90.6126020  66.6655260  36.4819790
  90.2745100  66.5142510  37.9498640  76.3165150  50.2469000  43.1422810
  75.9679970  50.7032820  43.9080990  75.9852850  49.3526130  43.2245240
  77.9229520  63.4188600  47.3076000  77.8799150  63.0481510  48.1890460
  78.0540530  64.3566170  47.4477820  81.6235550  64.9748190  42.9085720
  81.3826910  65.2422750  42.0216240  82.5638190  65.1453920  42.9636580
  83.8289970  51.4380880  46.6642230  83.7678860  52.0302710  47.4137640
  84.7690350  51.3306840  46.5192490  86.4664530  51.0950940  46.3034520
  87.0804940  51.4130230  45.6415600  87.0114090  50.6099530  46.9230380
  76.9885790  49.7745200  46.4173580  77.5368780  49.5933250  45.6539690
  77.0541100  48.9839310  46.9529890  77.7617550  66.3650850  44.4273780
  77.1677870  66.2335550  45.1663820  77.7541390  65.5288990  43.9615880
  87.2072570  49.6583080  42.6303810  86.3332410  49.9918190  42.4276740
  87.0983320  49.1856260  43.4555680  88.1144550  51.8653950  44.0145530
  87.7857910  51.0505710  43.6347260  89.0626850  51.8223760  43.8911220
  90.5679160  67.6365990  40.9883100  90.1082130  68.3881800  40.6141120
  89.9391620  66.9172460  40.9297900  77.3929780  63.7309230  43.3781820
  76.6663840  63.1114520  43.3107770  77.4538930  64.1249840  42.5079900
  80.9974880  65.9454230  40.1631230  81.5139900  65.3341590  39.6379490
  81.6472260  66.4483010  40.6542240  83.7370380  66.8362720  40.9900210
  84.0248190  66.5817020  40.1133220  84.2493600  66.2840080  41.5805780
  84.9547390  50.5752920  41.5696720  84.1719180  51.0498420  41.8493480
  84.6610320  49.6707750  41.4609900  89.5068460  51.2776020  39.6145810
  89.9476550  51.2221120  38.7667410  89.2376050  52.1934030  39.6855990
  75.6759780  67.0483620  36.5878580  75.5081820  66.4154300  37.2860470
  74.8094290  67.2543020  36.2372770  76.2987800  50.8800400  34.0910440
  77.0567160  50.9929280  33.5174470  75.8364970  51.7169600  34.0453870
  82.8401610  52.9939670  37.0812750  82.0276120  52.6196560  36.7408630
  83.3443250  52.2384750  37.3833940  87.3426590  49.6582120  38.3195820
  87.9455960  50.2302330  38.7944340  86.6019580  50.2221560  38.0969720
  90.4861190  50.0603680  33.5936100  90.6811820  50.9587130  33.8603530
  89.6991060  49.8290760  34.0869050  77.2822480  65.7416850  34.0328720
  76.7570100  66.1224880  33.3290680  77.2067060  66.3667620  34.7538430
  78.6712950  51.4064450  32.6312410  79.2005710  50.6194250  32.5020360
  79.3041270  52.0855640  32.8647940  80.8650790  51.1439590  35.6857800
  80.2353530  50.4426900  35.8527930  80.3255930  51.9043720  35.4690960
  83.8042740  67.7578820  48.3568410  84.7310050  67.5223090  48.4004370
  83.7893170  68.5850820  47.8754440  80.9906350  50.4223570  48.1210290
  80.7090620  50.9257170  47.3571110  81.3726050  49.6245320  47.7552420
  79.8815450  67.6899230  32.9077970  80.6134270  67.4058510  32.3601860
  80.1409120  67.4512510  33.7977350  79.0430240  63.8063960  32.9124300
  78.4139120  64.2749060  33.4610130  79.1578070  62.9613180  33.3470490
  87.5921810  49.8377150  48.6990760  87.4787260  50.1571760  49.5942280
  88.4091550  50.2389660  48.4028040  86.4979960  57.8569620  19.0625500
  86.4174010  56.9424230  18.7917210  86.0844380  58.3536690  18.3565210
  84.6298000  59.6348640  20.9434770  83.8540100  59.1549080  21.2333340
  85.2810930  58.9554290  20.7690930  78.6463830  59.9468450  21.8210530
  77.8148710  59.6917160  22.2207040  79.2544810  60.0179220  22.5568450
  88.6505430  64.0408830  19.7233900  88.1886960  63.2696070  20.0521070
  89.4630980  64.0674900  20.2286350  78.6265090  63.9808540  22.0168550
  78.9293130  63.0906280  21.8378770  79.3708680  64.5378760  21.7890800
  77.0555780  54.9070340  15.6052920  76.1672480  55.2486310  15.5032800
  77.3396970  54.7070660  14.7133750  75.0188790  57.5075990  21.4892620
  75.5904900  56.7398190  21.4896260  75.0190330  57.8064750  20.5799230
  84.8768740  66.3266840  19.3437890  84.2580180  66.7824340  18.7732330
  85.7320520  66.4818300  18.9427590  84.0706990  62.3105830  20.9504930
  84.0015270  61.3695770  20.7894060  84.8326850  62.4007240  21.5227500
  76.2613660  52.9160350  23.2761550  76.0816500  52.0186100  23.5564310
  75.8593740  53.4632220  23.9508500  85.1012160  55.1176210  21.1773860
  85.4776980  54.2448090  21.0647530  85.0031670  55.4534910  20.2864300
  79.2317170  53.4901840  16.6391300  79.3383920  54.3905570  16.9460060
  78.3209530  53.4419810  16.3485950  88.8836280  52.6126650  18.1102200
  89.7045900  52.1223220  18.1527680  88.9170360  53.2024310  18.8634040
  76.8800330  55.4120850  21.8843890  77.5610440  55.6759220  22.5031290
  76.5648380  54.5721720  22.2181900  81.0724900  56.4588210  20.9716480
  81.5803120  56.9569180  21.6121500  81.6038140  55.6823410  20.7955840
  79.3561000  51.0986770  25.2379900  79.3579440  51.6159160  24.4325800
  78.5265310  50.6216950  25.2149830  85.7432090  61.2106080  16.7369800
  85.1249360  61.6755530  16.1732520  86.2555340  61.9033560  17.1539310
  80.6063850  60.7381950  23.4153400  80.2733230  61.3650870  24.0574470
  80.7830530  61.2643830  22.6355070  89.1197760  54.5527030  20.8829740
  88.4153330  54.8411920  21.4632850  89.4809920  55.3627140  20.5229300
  79.0376330  52.8096730  23.2450350  79.3793140  53.6538780  22.9504220
  78.0992140  52.9580470  23.3615690  79.8182950  62.7062750  25.2302580
  80.4356950  63.3813830  24.9487030  78.9576070  63.1150730  25.1390080
  75.1115290  61.8962610  14.1109430  74.7343270  62.3849710  13.3794330
  75.3688360  62.5687890  14.7415960  82.7204220  50.2979000  19.5694940
  83.0279200  49.7425890  18.8530440  81.7904920  50.4323460  19.3867930
  88.2719280  66.0146290  21.8602400  88.2846440  65.6108580  20.9924660
  87.7194500  66.7893580  21.7563830  89.5664700  62.7362510  16.9492570
  89.4561030  61.7936840  17.0741990  89.5632950  63.0978150  17.8355330
  87.6704720  60.9176130  23.1885010  88.0873510  60.7036240  22.3538470
  88.3944540  61.1748920  23.7593630  85.1084980  58.3627830  16.3055060
  84.1814260  58.2965210  16.5343530  85.2609800  59.3007960  16.1910300
  85.0954060  54.6344830  13.3022220  84.1557730  54.7958790  13.3874680
  85.4137320  55.3530510  12.7558210  89.1382270  59.9248130  16.8090310
  88.5194690  59.5867680  16.1616610  89.1206720  59.2807890  17.5169500
  88.5808830  56.1032670  24.2256120  88.1680010  56.9286380  24.4796110
  87.8484780  55.5177710  24.0332480  80.7141620  58.8892570  19.0874790
  80.3098620  58.1769820  18.5920690  80.8004740  58.5445810  19.9762830
  81.1823320  62.5760130  21.2514000  80.8851610  61.9705600  20.5721780
  82.1323140  62.6137440  21.1403360  79.4270240  55.6635780  22.8673830
  79.9784830  55.7731120  22.0927080  79.9413750  56.0373380  23.5829060
  89.2708930  66.1492000  24.9137100  88.7939490  66.9564190  24.7209710
  88.5870720  65.4970330  25.0663310  80.2741750  62.3141820  27.9021800
  79.3770280  62.5381790  28.1495200  80.2994620  62.4376760  26.9533200
  87.3146970  59.1634940  13.8163060  87.7540250  58.3257370  13.6700880
  88.0275390  59.7964340  13.9027200  79.1012970  59.1855140  26.4779170
  78.9620740  60.0577940  26.8466570  78.2194330  58.8427950  26.3327110
  85.4242350  64.1031010  17.7844300  85.8638260  64.8455340  17.3699690
  85.3629240  64.3457580  18.7083260  80.8993320  65.1276840  28.6864320
  80.8708750  65.5319790  27.8192750  80.7358290  64.1987200  28.5235920
  77.4146250  57.7837550  16.5881440  77.2943850  58.5099640  15.9762710
  77.1047140  57.0140460  16.1109350  75.0531620  60.9552690  22.3950080
  75.1312040  61.0901460  21.4505800  75.6673300  60.2468580  22.5878200
  76.2979250  62.6552880  18.8056260  75.8907330  62.7967470  17.9509860
  77.1892260  62.3713040  18.6027470  86.1158130  66.8044790  25.7123310
  86.6302800  66.7152800  26.5145740  85.2727210  67.1504490  26.0051220
  88.0912530  67.0900130  15.1407310  87.9313670  66.8003070  16.0389140
  87.9259240  66.3140260  14.6052540  80.5700910  66.8698660  16.9178930
  80.3943390  65.9534200  16.7046730  79.7156650  67.2285950  17.1576730
  87.7938660  64.5987690  13.7005310  87.1003820  64.5964980  13.0407590
  88.5361520  64.1747010  13.2699480  87.3588590  66.2250400  17.7753800
  87.8145540  65.4439780  18.0892420  87.6981110  66.9357220  18.3194980
  75.1091140  61.9966860  24.9344540  75.2722180  61.5272220  24.1163910
  75.5743590  61.4890420  25.5993380  79.8809910  51.1272620  19.9705110
  79.4378060  51.9082160  19.6389630  80.4394900  51.4502510  20.6776050
  84.1679720  53.9941140  25.5740430  83.7059090  54.2024160  26.3860370
  83.7657830  53.1800490  25.2711100  89.1684230  55.2150090  26.7037090
  88.3177820  54.9155840  27.0246160  89.0086020  55.4592100  25.7920910
  86.2633940  56.7151840  28.8035880  86.5887350  55.8815590  28.4638110
  87.0514270  57.2380360  28.9514210  82.9968730  50.7483320  14.8510940
  82.3722910  50.7443190  15.5764250  82.9098850  49.8814280  14.4546910
  81.9185810  51.6719950  21.8294710  82.2158140  52.5782780  21.7486730
  82.4671370  51.1838730  21.2154280  79.6724130  56.2506190  17.6986360
  79.4465050  56.0343360  18.6032980  78.8916660  56.6834650  17.3532330
  86.9021890  56.2569560  16.2977010  86.3030780  56.9805360  16.1140630
  87.4501500  56.1946340  15.5153460  82.1123340  57.1491770  28.3646630
  82.0166940  56.2086500  28.2147030  82.9555320  57.3706840  27.9694700
  85.5086760  54.8933100  18.3280290  85.9016330  55.2105300  17.5148980
  85.8703610  54.0144980  18.4424810  77.2433880  53.5605440  26.5180410
  76.8497270  54.4080650  26.7253190  76.5552280  52.9231810  26.7089050
  83.8178930  53.6440410  29.5877150  83.1277250  53.4512610  30.2223240
  84.5611230  53.9275050  30.1201450  74.5450930  51.4833900  20.5510490
  74.2563980  52.0536760  21.2635470  75.2896690  51.0038350  20.9141720
  74.7321160  55.4254020  11.7613210  74.6495830  56.3684780  11.9028200
  74.3804220  55.2828930  10.8825560  86.0941900  57.4838850  22.4231070
  85.3623020  57.9925660  22.7721170  85.6966240  56.6668830  22.1219850
  82.5319290  54.1593050  20.8283560  82.5355350  53.7183000  19.9788100
  83.4270410  54.4810380  20.9355380  78.3821670  54.0419540  19.7877770
  78.0421720  54.5194770  20.5444820  77.6198990  53.5884660  19.4278870
  82.5939440  55.1605130  13.8190320  82.7152260  55.1191610  14.7676140
  82.2087950  56.0229280  13.6637050  86.5567810  52.9372530  21.8354010
  86.5740550  53.3881180  22.6795860  86.3083390  52.0378170  22.0487450
  81.6060940  57.4706270  13.2173620  81.0377840  57.0224520  12.5909530
  82.3149940  57.8299050  12.6838770  89.9838560  50.3504710  27.6740390
  90.3084330  49.6194370  28.1998370  90.0195070  50.0318350  26.7721380
  76.6830120  61.3718290  27.0940350  76.2984910  60.7311960  27.6923310
  76.9942310  62.0754410  27.6635080  82.8327260  58.2194830  22.5748970
  83.1997390  57.7453400  23.3210310  82.6432320  59.0936400  22.9157310
  75.6967750  52.9638520  18.7042440  75.4114670  52.5994190  19.5421060
  75.6346610  52.2318980  18.0905580  80.6226630  57.2603470  24.8933180
  80.3183700  58.1395450  25.1183540  81.5773090  57.3203260  24.9290620
  79.1508420  61.4664460  15.4900030  78.3770680  60.9262080  15.3298750
  79.8803050  60.9471070  15.1517790  89.9096400  60.4629820  21.2826420
  90.6295520  60.9585110  20.8922530  89.7078220  59.7847710  20.6380290
  85.3706340  51.8567780  15.4255810  84.5570950  51.3580950  15.3501120
  85.1768290  52.6966030  15.0092160  85.2915200  60.5338880  27.1695420
  85.2252510  59.6134550  26.9153010  84.6620340  60.6314320  27.8840060
  88.0854730  56.2287430  13.7217970  88.9734350  56.5404660  13.5469310
  88.0559820  55.3559680  13.3298550  79.1945820  61.1344840  19.1278840
  79.7124490  60.3313100  19.0735730  78.7429840  61.0723980  19.9695670
  84.0815320  62.4011120  14.4006140  84.4231020  63.1453350  13.9049460
  83.2528030  62.7142240  14.7630970  76.6790360  58.1006210  26.0404540
  76.3205300  58.7660060  26.6277880  76.3844920  57.2689760  26.4117160
  79.8803480  58.5590450  28.9244090  79.5803620  58.7047630  28.0271910
  80.6514720  57.9995740  28.8317480  85.2231930  63.3559450  26.9199220
  85.2376470  62.4240410  26.7018130  84.5157030  63.4419210  27.5588990
  86.9642730  61.7226960  19.7651650  87.3166550  61.1255090  19.1053020
  86.0805060  61.3971190  19.9359900  83.0506010  62.4824650  17.1722060
  83.7377140  63.0293860  17.5529650  82.2638430  63.0265380  17.2071670
  75.1898410  58.0997470  12.6639140  76.0593260  58.3822270  12.9475060
  74.6988730  58.9133340  12.5487950  82.3533220  59.4870680  16.7847420
  82.8096000  60.2975930  17.0107610  82.0021430  59.1693820  17.6165910
  84.6565830  64.9977020  24.0139720  85.3008050  65.2036400  24.6913140
  85.0195270  64.2365420  23.5610570  78.2545000  49.8308330  17.2569940
  78.1259630  49.8226230  18.2054860  77.4307020  50.1691420  16.9060950
  85.9297910  63.0009370  22.7317170  86.5720140  62.3002530  22.8449340
  86.4547260  63.7807810  22.5514060  89.7753630  63.2857990  12.4556310
  89.5491210  62.5688430  13.0480950  89.3849830  63.0370430  11.6178060
  87.7035530  63.8004270  25.9353230  88.0391770  64.3870960  26.6131150
  86.7835870  63.6696980  26.1651020  75.5569660  67.3124850  13.2300770
  75.9167300  67.9114190  12.5758040  75.4162000  67.8584740  14.0035800
  75.2538930  51.5899450  26.7176640  74.5397450  51.7896370  27.3229250
  75.6733970  50.8139020  27.0891440  89.3569880  61.2029930  14.1170470
  89.0691580  61.6642620  14.9048350  90.1522050  60.7427700  14.3854690
  75.5411520  65.5779710  27.7043170  75.6502640  64.6374450  27.5638560
  74.8892080  65.8434460  27.0556900  83.5324110  63.8495600  29.1041290
  83.2120980  63.1304840  29.6486980  82.8582470  64.5250670  29.1777350
  81.5738280  64.6956050  14.0474440  81.5648380  65.4285740  13.4318950
  80.6536640  64.4487630  14.1401400  77.1744920  59.9170940  14.7921200
  76.5672870  60.6569840  14.8016500  77.6494270  60.0070300  13.9659400
  86.7477710  54.0821760  24.4678090  87.1158530  53.2616970  24.7957660
  85.8875910  54.1423650  24.8833740  90.1139740  53.0378700  15.2765650
  89.4852900  53.1424370  14.5623880  89.6191660  53.2575480  16.0659530
  84.5597880  64.7584290  12.7099630  84.6609860  64.5548280  11.7801610
  83.6599620  64.5042570  12.9147410  82.0823770  55.3164650  16.6923530
  81.3739920  55.7850990  17.1337140  82.3668250  54.6586660  17.3268720
  83.7079700  56.7361350  24.6916060  84.2064950  57.2107170  25.3567910
  83.8502650  55.8124870  24.8986090  86.1139200  52.0415310  18.1319320
  85.9906980  52.0601440  17.1828830  87.0623760  52.0894250  18.2517720
  83.2015990  67.2770610  17.4047300  83.4557490  67.2392000  16.4826670
  82.2528470  67.1503940  17.3975550  80.2858790  53.6249730  14.0674240
  81.1349320  54.0619880  14.0014430  79.9190060  53.9369990  14.8946300
  89.2068570  58.1962490  18.9805810  88.2658710  58.2112720  19.1553500
  89.5212640  57.4098450  19.4266110  79.1850210  59.8782090  12.5409770
  79.9513480  59.7663450  13.1035200  79.2624900  59.1820060  11.8886540
  77.8796970  57.3107160  13.2242660  77.9600560  56.3634670  13.3360060
  78.7716720  57.6414040  13.3303320  78.6811680  67.4602550  20.3277200
  79.4174160  66.9118010  20.5985770  79.0652600  68.3258560  20.1883190
  75.5657160  63.5276120  16.2018710  74.6396940  63.7697260  16.1924120
  76.0313590  64.3550380  16.0803460  77.6869960  66.6448620  29.5162780
  78.4882690  66.9660670  29.9298180  77.1721780  66.2844200  30.2382690
  81.7913990  66.6332860  12.1502770  82.5842600  66.9221690  11.6984560
  81.2718340  66.2025030  11.4715250  86.5234590  62.7528490  29.4638190
  85.9172750  62.7760090  28.7233940  86.2188700  62.0211530  30.0005440
  87.9534960  66.4808780  28.0747600  88.9056710  66.3966800  28.0247840
  87.8063180  67.1450490  28.7481390  75.4067770  59.1322080  28.4598830
  75.9106790  58.5529360  29.0315060  74.6675190  59.4162310  28.9975200
  82.3091390  61.8536270  12.0145120  82.2042030  61.2388620  12.7406500
  82.1415610  61.3302160  11.2308130  82.4605710  60.5393070  27.9934350
  81.6951380  61.1078070  27.9089020  82.6421670  60.2469280  27.1002580
  85.5494120  60.9156300  12.6187110  85.0004220  61.3625600  13.2629850
  86.1713380  60.4105550  13.1424780  89.6029060  62.2698400  28.5509370
  90.3438530  62.6074160  28.0476830  88.8401740  62.4390460  27.9979140
  77.4390850  57.2751670  29.3548900  77.4796190  56.9765540  30.2634130
  78.2936350  57.6759280  29.1956420  81.2169240  59.8747220  14.5152410
  81.6385660  59.7087090  15.3583800  81.3420080  59.0647450  14.0207550
  79.3796660  55.8543770  27.3223390  78.8493120  55.3634720  26.6946730
  80.0484730  56.2827970  26.7881320  83.7296880  58.8984830  11.7629510
  84.2502540  58.1833850  11.3970660  84.3765280  59.5370700  12.0630020
  88.2774720  60.3213230  27.0864580  88.6915740  60.4758310  27.9355000
  87.3425720  60.4468450  27.2490360  88.7496890  57.6609390  29.0903730
  89.3317660  56.9061710  29.0024210  88.9258660  58.1916830  28.3135210
  79.8668960  52.8206140  27.4020680  79.7725830  52.2026890  26.6771550
  79.2866350  53.5472430  27.1750590  82.6330400  51.3779380  24.4348070
  82.1847700  51.4003640  23.5893620  81.9995600  50.9798400  25.0318370
  83.0389950  60.2733710  25.0560510  83.4578060  61.1166440  24.8836750
  82.1198580  60.4105750  24.8267290  85.3753850  58.0049890  26.4398350
  85.4950060  57.4091030  27.1793190  86.2347850  58.0419580  26.0199650
  87.7141750  58.5587080  25.0160860  87.1876970  59.0829700  24.4126000
  88.0573090  59.1914470  25.6470590  80.1128140  55.9480450  11.4610570
  79.9117200  55.0847810  11.8223910  79.9420190  55.8613810  10.5232170
  80.8897370  66.5786720  26.1718240  80.3518460  67.3032780  25.8526940
  81.1431330  66.1017060  25.3815580  82.1422620  54.5471240  27.6974170
  82.7322310  54.2387090  28.3851990  81.3242860  54.0750990  27.8534070
  86.9616050  54.1637050  27.9307190  86.2731570  53.5018590  27.8657180
  87.6822070  53.7175320  28.3755650  87.5916450  50.7588680  13.9897450
  87.8718740  49.9156580  14.3456870  86.8182180  50.9911790  14.5036200
  78.9110940  53.0481070  11.4488450  79.2136840  53.0548500  10.5407600
  79.6505530  52.6978930  11.9456110  83.7459580  67.8137930  26.4304890
  83.6718280  68.7173070  26.7377260  82.8438420  67.4949830  26.4026960
  82.1295870  51.9915690  12.4344650  81.7817870  51.3139680  11.8547100
  82.3308640  51.5305200  13.2488040  84.2944910  66.9796440  14.0531250
  85.1895700  67.3181410  14.0750010  84.3262540  66.2575850  13.4255530
  77.9341070  62.3523490  12.2818250  78.3715940  62.8953160  12.9375830
  78.4188800  61.5270440  12.2914590  75.1486870  65.1412520  19.7338510
  75.4789880  64.2733580  19.5017150  75.5777870  65.3471040  20.5643470
  79.7448790  63.4721530  17.3940480  79.4444330  63.3486500  18.2944390
  79.6386280  62.6130120  16.9856210  75.6377080  66.0083110  22.4720140
  75.2008070  66.1883910  23.3044290  76.2054760  66.7657730  22.3301860
  75.4701510  58.5203340  18.8309020  74.8150350  58.2514980  18.1868720
  76.3079460  58.4107820  18.3811000  89.9590900  62.2352090  24.8573610
  89.1450740  62.6649250  25.1199400  90.3665100  62.8470500  24.2442660
  88.4191950  53.3144630  13.0527510  88.8376830  53.1275610  12.2124170
  88.1128010  52.4623680  13.3630440  76.5077440  58.9055910  23.3712360
  76.8750480  58.8183310  24.2508380  75.9388260  58.1422460  23.2719220
  76.0593440  55.8165000  27.2770780  75.1649490  55.7831760  27.6164490
  76.5990990  56.0151790  28.0422030  89.7469370  52.5996720  29.1622530
  90.6239550  52.6080120  29.5456530  89.7590210  51.8627560  28.5514880
  74.6839590  55.7302270  14.7734350  73.7803670  55.9932470  14.5986010
  75.1680210  56.0013440  13.9934310  77.2266800  54.7867810  12.6828730
  77.9358500  54.3651030  12.1976010  76.5106740  54.8543040  12.0512080
  76.8740960  50.8407140  11.7231380  77.5969090  51.3816080  12.0412600
  77.1465480  50.5670560  10.8472920  76.5633150  50.0913330  21.6254000
  77.2109340  49.5410710  21.1849160  76.9834990  50.3456480  22.4469810
  90.0166950  66.9870690  18.3841880  90.6126020  66.6655260  17.7076300
  90.2745100  66.5142510  19.1755150  76.3165150  50.2469000  24.3679320
  75.9679970  50.7032820  25.1337500  75.9852850  49.3526130  24.4501750
  77.9229520  63.4188600  28.5332510  77.8799150  63.0481510  29.4146970
  78.0540530  64.3566170  28.6734330  81.6235550  64.9748190  24.1342230
  81.3826910  65.2422750  23.2472750  82.5638190  65.1453920  24.1893090
  83.8289970  51.4380880  27.8898740  83.7678860  52.0302710  28.6394150
  84.7690350  51.3306840  27.7449000  86.4664530  51.0950940  27.5291030
  87.0804940  51.4130230  26.8672110  87.0114090  50.6099530  28.1486890
  76.9885790  49.7745200  27.6430090  77.5368780  49.5933250  26.8796200
  77.0541100  48.9839310  28.1786400  77.7617550  66.3650850  25.6530290
  77.1677870  66.2335550  26.3920330  77.7541390  65.5288990  25.1872390
  87.2072570  49.6583080  23.8560320  86.3332410  49.9918190  23.6533250
  87.0983320  49.1856260  24.6812190  88.1144550  51.8653950  25.2402040
  87.7857910  51.0505710  24.8603770  89.0626850  51.8223760  25.1167730
  90.5679160  67.6365990  22.2139610  90.1082130  68.3881800  21.8397630
  89.9391620  66.9172460  22.1554410  77.3929780  63.7309230  24.6038330
  76.6663840  63.1114520  24.5364280  77.4538930  64.1249840  23.7336410
  80.9974880  65.9454230  21.3887740  81.5139900  65.3341590  20.8636000
  81.6472260  66.4483010  21.8798750  83.7370380  66.8362720  22.2156720
  84.0248190  66.5817020  21.3389730  84.2493600  66.2840080  22.8062290
  84.9547390  50.5752920  22.7953230  84.1719180  51.0498420  23.0749990
  84.6610320  49.6707750  22.6866410  89.5068460  51.2776020  20.8402320
  89.9476550  51.2221120  19.9923920  89.2376050  52.1934030  20.9112500
  75.6759780  67.0483620  17.8135090  75.5081820  66.4154300  18.5116980
  74.8094290  67.2543020  17.4629280  76.2987800  50.8800400  15.3166950
  77.0567160  50.9929280  14.7430980  75.8364970  51.7169600  15.2710380
  82.8401610  52.9939670  18.3069260  82.0276120  52.6196560  17.9665140
  83.3443250  52.2384750  18.6090450  87.3426590  49.6582120  19.5452330
  87.9455960  50.2302330  20.0200850  86.6019580  50.2221560  19.3226230
  90.4861190  50.0603680  14.8192610  90.6811820  50.9587130  15.0860040
  89.6991060  49.8290760  15.3125560  77.2822480  65.7416850  15.2585230
  76.7570100  66.1224880  14.5547190  77.2067060  66.3667620  15.9794940
  78.6712950  51.4064450  13.8568920  79.2005710  50.6194250  13.7276870
  79.3041270  52.0855640  14.0904450  80.8650790  51.1439590  16.9114310
  80.2353530  50.4426900  17.0784440  80.3255930  51.9043720  16.6947470
  83.8042740  67.7578820  29.5824920  84.7310050  67.5223090  29.6260880
  83.7893170  68.5850820  29.1010950  80.9906350  50.4223570  29.3466800
  80.7090620  50.9257170  28.5827620  81.3726050  49.6245320  28.9808930
  79.8815450  67.6899230  14.1334480  80.6134270  67.4058510  13.5858370
  80.1409120  67.4512510  15.0233860  79.0430240  63.8063960  14.1380810
  78.4139120  64.2749060  14.6866640  79.1578070  62.9613180  14.5727000
  87.5921810  49.8377150  29.9247270  87.4787260  50.1571760  30.8198790
  88.4091550  50.2389660  29.6284550  84.6298000  59.6348640   2.1691280
  83.8540100  59.1549080   2.4589850  85.2810930  58.9554290   1.9947440
  78.6463830  59.9468450   3.0467040  77.8148710  59.6917160   3.4463550
  79.2544810  60.0179220   3.7824960  78.6265090  63.9808540   3.2425060
  78.9293130  63.0906280   3.0635280  79.3708680  64.5378760   3.0147310
  75.0188790  57.5075990   2.7149130  75.5904900  56.7398190   2.7152770
  75.0190330  57.8064750   1.8055740  84.0706990  62.3105830   2.1761440
  84.0015270  61.3695770   2.0150570  84.8326850  62.4007240   2.7484010
  76.2613660  52.9160350   4.5018060  76.0816500  52.0186100   4.7820820
  75.8593740  53.4632220   5.1765010  76.8800330  55.4120850   3.1100400
  77.5610440  55.6759220   3.7287800  76.5648380  54.5721720   3.4438410
  81.0724900  56.4588210   2.1972990  81.5803120  56.9569180   2.8378010
  81.6038140  55.6823410   2.0212350  79.3561000  51.0986770   6.4636410
  79.3579440  51.6159160   5.6582310  78.5265310  50.6216950   6.4406340
  80.6063850  60.7381950   4.6409910  80.2733230  61.3650870   5.2830980
  80.7830530  61.2643830   3.8611580  89.1197760  54.5527030   2.1086250
  88.4153330  54.8411920   2.6889360  89.4809920  55.3627140   1.7485810
  79.0376330  52.8096730   4.4706860  79.3793140  53.6538780   4.1760730
  78.0992140  52.9580470   4.5872200  79.8182950  62.7062750   6.4559090
  80.4356950  63.3813830   6.1743540  78.9576070  63.1150730   6.3646590
  88.2719280  66.0146290   3.0858910  88.2846440  65.6108580   2.2181170
  87.7194500  66.7893580   2.9820340  87.6704720  60.9176130   4.4141520
  88.0873510  60.7036240   3.5794980  88.3944540  61.1748920   4.9850140
  88.5808830  56.1032670   5.4512630  88.1680010  56.9286380   5.7052620
  87.8484780  55.5177710   5.2588990  81.1823320  62.5760130   2.4770510
  80.8851610  61.9705600   1.7978290  82.1323140  62.6137440   2.3659870
  79.4270240  55.6635780   4.0930340  79.9784830  55.7731120   3.3183590
  79.9413750  56.0373380   4.8085570  89.2708930  66.1492000   6.1393610
  88.7939490  66.9564190   5.9466220  88.5870720  65.4970330   6.2919820
  80.2741750  62.3141820   9.1278310  79.3770280  62.5381790   9.3751710
  80.2994620  62.4376760   8.1789710  79.1012970  59.1855140   7.7035680
  78.9620740  60.0577940   8.0723080  78.2194330  58.8427950   7.5583620
  80.8993320  65.1276840   9.9120830  80.8708750  65.5319790   9.0449260
  80.7358290  64.1987200   9.7492430  75.0531620  60.9552690   3.6206590
  75.1312040  61.0901460   2.6762310  75.6673300  60.2468580   3.8134710
  86.1158130  66.8044790   6.9379820  86.6302800  66.7152800   7.7402250
  85.2727210  67.1504490   7.2307730  75.1091140  61.9966860   6.1601050
  75.2722180  61.5272220   5.3420420  75.5743590  61.4890420   6.8249890
  84.1679720  53.9941140   6.7996940  83.7059090  54.2024160   7.6116880
  83.7657830  53.1800490   6.4967610  89.1684230  55.2150090   7.9293600
  88.3177820  54.9155840   8.2502670  89.0086020  55.4592100   7.0177420
  86.2633940  56.7151840  10.0292390  86.5887350  55.8815590   9.6894620
  87.0514270  57.2380360  10.1770720  81.9185810  51.6719950   3.0551220
  82.2158140  52.5782780   2.9743240  82.4671370  51.1838730   2.4410790
  82.1123340  57.1491770   9.5903140  82.0166940  56.2086500   9.4403540
  82.9555320  57.3706840   9.1951210  77.2433880  53.5605440   7.7436920
  76.8497270  54.4080650   7.9509700  76.5552280  52.9231810   7.9345560
  83.8178930  53.6440410  10.8133660  83.1277250  53.4512610  11.4479750
  84.5611230  53.9275050  11.3457960  74.5450930  51.4833900   1.7767000
  74.2563980  52.0536760   2.4891980  75.2896690  51.0038350   2.1398230
  86.0941900  57.4838850   3.6487580  85.3623020  57.9925660   3.9977680
  85.6966240  56.6668830   3.3476360  86.5567810  52.9372530   3.0610520
  86.5740550  53.3881180   3.9052370  86.3083390  52.0378170   3.2743960
  89.9838560  50.3504710   8.8996900  90.3084330  49.6194370   9.4254880
  90.0195070  50.0318350   7.9977890  76.6830120  61.3718290   8.3196860
  76.2984910  60.7311960   8.9179820  76.9942310  62.0754410   8.8891590
  82.8327260  58.2194830   3.8005480  83.1997390  57.7453400   4.5466820
  82.6432320  59.0936400   4.1413820  80.6226630  57.2603470   6.1189690
  80.3183700  58.1395450   6.3440050  81.5773090  57.3203260   6.1547130
  89.9096400  60.4629820   2.5082930  90.6295520  60.9585110   2.1179040
  89.7078220  59.7847710   1.8636800  85.2915200  60.5338880   8.3951930
  85.2252510  59.6134550   8.1409520  84.6620340  60.6314320   9.1096570
  76.6790360  58.1006210   7.2661050  76.3205300  58.7660060   7.8534390
  76.3844920  57.2689760   7.6373670  79.8803480  58.5590450  10.1500600
  79.5803620  58.7047630   9.2528420  80.6514720  57.9995740  10.0573990
  85.2231930  63.3559450   8.1455730  85.2376470  62.4240410   7.9274640
  84.5157030  63.4419210   8.7845500  84.6565830  64.9977020   5.2396230
  85.3008050  65.2036400   5.9169650  85.0195270  64.2365420   4.7867080
  85.9297910  63.0009370   3.9573680  86.5720140  62.3002530   4.0705850
  86.4547260  63.7807810   3.7770570  87.7035530  63.8004270   7.1609740
  88.0391770  64.3870960   7.8387660  86.7835870  63.6696980   7.3907530
  75.2538930  51.5899450   7.9433150  74.5397450  51.7896370   8.5485760
  75.6733970  50.8139020   8.3147950  75.5411520  65.5779710   8.9299680
  75.6502640  64.6374450   8.7895070  74.8892080  65.8434460   8.2813410
  83.5324110  63.8495600  10.3297800  83.2120980  63.1304840  10.8743490
  82.8582470  64.5250670  10.4033860  86.7477710  54.0821760   5.6934600
  87.1158530  53.2616970   6.0214170  85.8875910  54.1423650   6.1090250
  83.7079700  56.7361350   5.9172570  84.2064950  57.2107170   6.5824420
  83.8502650  55.8124870   6.1242600  77.6869960  66.6448620  10.7419290
  78.4882690  66.9660670  11.1554690  77.1721780  66.2844200  11.4639200
  86.5234590  62.7528490  10.6894700  85.9172750  62.7760090   9.9490450
  86.2188700  62.0211530  11.2261950  87.9534960  66.4808780   9.3004110
  88.9056710  66.3966800   9.2504350  87.8063180  67.1450490   9.9737900
  75.4067770  59.1322080   9.6855340  75.9106790  58.5529360  10.2571570
  74.6675190  59.4162310  10.2231710  82.4605710  60.5393070   9.2190860
  81.6951380  61.1078070   9.1345530  82.6421670  60.2469280   8.3259090
  89.6029060  62.2698400   9.7765880  90.3438530  62.6074160   9.2733340
  88.8401740  62.4390460   9.2235650  77.4390850  57.2751670  10.5805410
  77.4796190  56.9765540  11.4890640  78.2936350  57.6759280  10.4212930
  79.3796660  55.8543770   8.5479900  78.8493120  55.3634720   7.9203240
  80.0484730  56.2827970   8.0137830  88.2774720  60.3213230   8.3121090
  88.6915740  60.4758310   9.1611510  87.3425720  60.4468450   8.4746870
  88.7496890  57.6609390  10.3160240  89.3317660  56.9061710  10.2280720
  88.9258660  58.1916830   9.5391720  79.8668960  52.8206140   8.6277190
  79.7725830  52.2026890   7.9028060  79.2866350  53.5472430   8.4007100
  82.6330400  51.3779380   5.6604580  82.1847700  51.4003640   4.8150130
  81.9995600  50.9798400   6.2574880  83.0389950  60.2733710   6.2817020
  83.4578060  61.1166440   6.1093260  82.1198580  60.4105750   6.0523800
  85.3753850  58.0049890   7.6654860  85.4950060  57.4091030   8.4049700
  86.2347850  58.0419580   7.2456160  87.7141750  58.5587080   6.2417370
  87.1876970  59.0829700   5.6382510  88.0573090  59.1914470   6.8727100
  80.8897370  66.5786720   7.3974750  80.3518460  67.3032780   7.0783450
  81.1431330  66.1017060   6.6072090  82.1422620  54.5471240   8.9230680
  82.7322310  54.2387090   9.6108500  81.3242860  54.0750990   9.0790580
  86.9616050  54.1637050   9.1563700  86.2731570  53.5018590   9.0913690
  87.6822070  53.7175320   9.6012160  83.7459580  67.8137930   7.6561400
  83.6718280  68.7173070   7.9633770  82.8438420  67.4949830   7.6283470
  75.6377080  66.0083110   3.6976650  75.2008070  66.1883910   4.5300800
  76.2054760  66.7657730   3.5558370  89.9590900  62.2352090   6.0830120
  89.1450740  62.6649250   6.3455910  90.3665100  62.8470500   5.4699170
  76.5077440  58.9055910   4.5968870  76.8750480  58.8183310   5.4764890
  75.9388260  58.1422460   4.4975730  76.0593440  55.8165000   8.5027290
  75.1649490  55.7831760   8.8421000  76.5990990  56.0151790   9.2678540
  89.7469370  52.5996720  10.3879040  90.6239550  52.6080120  10.7713040
  89.7590210  51.8627560   9.7771390  76.5633150  50.0913330   2.8510510
  77.2109340  49.5410710   2.4105670  76.9834990  50.3456480   3.6726320
  76.3165150  50.2469000   5.5935830  75.9679970  50.7032820   6.3594010
  75.9852850  49.3526130   5.6758260  77.9229520  63.4188600   9.7589020
  77.8799150  63.0481510  10.6403480  78.0540530  64.3566170   9.8990840
  81.6235550  64.9748190   5.3598740  81.3826910  65.2422750   4.4729260
  82.5638190  65.1453920   5.4149600  83.8289970  51.4380880   9.1155250
  83.7678860  52.0302710   9.8650660  84.7690350  51.3306840   8.9705510
  86.4664530  51.0950940   8.7547540  87.0804940  51.4130230   8.0928620
  87.0114090  50.6099530   9.3743400  76.9885790  49.7745200   8.8686600
  77.5368780  49.5933250   8.1052710  77.0541100  48.9839310   9.4042910
  77.7617550  66.3650850   6.8786800  77.1677870  66.2335550   7.6176840
  77.7541390  65.5288990   6.4128900  87.2072570  49.6583080   5.0816830
  86.3332410  49.9918190   4.8789760  87.0983320  49.1856260   5.9068700
  88.1144550  51.8653950   6.4658550  87.7857910  51.0505710   6.0860280
  89.0626850  51.8223760   6.3424240  90.5679160  67.6365990   3.4396120
  90.1082130  68.3881800   3.0654140  89.9391620  66.9172460   3.3810920
  77.3929780  63.7309230   5.8294840  76.6663840  63.1114520   5.7620790
  77.4538930  64.1249840   4.9592920  80.9974880  65.9454230   2.6144250
  81.5139900  65.3341590   2.0892510  81.6472260  66.4483010   3.1055260
  83.7370380  66.8362720   3.4413230  84.0248190  66.5817020   2.5646240
  84.2493600  66.2840080   4.0318800  84.9547390  50.5752920   4.0209740
  84.1719180  51.0498420   4.3006500  84.6610320  49.6707750   3.9122920
  83.8042740  67.7578820  10.8081430  84.7310050  67.5223090  10.8517390
  83.7893170  68.5850820  10.3267460  80.9906350  50.4223570  10.5723310
  80.7090620  50.9257170   9.8084130  81.3726050  49.6245320  10.2065440
  87.5921810  49.8377150  11.1503780  87.4787260  50.1571760  12.0455300
  88.4091550  50.2389660  10.8541060  86.4979960  39.0826130  94.1599460
  86.4174010  38.1680740  93.8891170  86.0844380  39.5793200  93.4539170
  88.6505430  45.2665340  94.8207860  88.1886960  44.4952580  95.1495030
  89.4630980  45.2931410  95.3260310  77.0555780  36.1326850  90.7026880
  76.1672480  36.4742820  90.6006760  77.3396970  35.9327170  89.8107710
  84.8768740  47.5523350  94.4411850  84.2580180  48.0080850  93.8706290
  85.7320520  47.7074810  94.0401550  79.2317170  34.7158350  91.7365260
  79.3383920  35.6162080  92.0434020  78.3209530  34.6676320  91.4459910
  88.8836280  33.8383160  93.2076160  89.7045900  33.3479730  93.2501640
  88.9170360  34.4280820  93.9608000  85.7432090  42.4362590  91.8343760
  85.1249360  42.9012040  91.2706480  86.2555340  43.1290070  92.2513270
  75.1115290  43.1219120  89.2083390  74.7343270  43.6106220  88.4768290
  75.3688360  43.7944400  89.8389920  82.7204220  31.5235510  94.6668900
  83.0279200  30.9682400  93.9504400  81.7904920  31.6579970  94.4841890
  89.5664700  43.9619020  92.0466530  89.4561030  43.0193350  92.1715950
  89.5632950  44.3234660  92.9329290  85.1084980  39.5884340  91.4029020
  84.1814260  39.5221720  91.6317490  85.2609800  40.5264470  91.2884260
  85.0954060  35.8601340  88.3996180  84.1557730  36.0215300  88.4848640
  85.4137320  36.5787020  87.8532170  89.1382270  41.1504640  91.9064270
  88.5194690  40.8124190  91.2590570  89.1206720  40.5064400  92.6143460
  80.7141620  40.1149080  94.1848750  80.3098620  39.4026330  93.6894650
  80.8004740  39.7702320  95.0736790  87.3146970  40.3891450  88.9137020
  87.7540250  39.5513880  88.7674840  88.0275390  41.0220850  89.0001160
  85.4242350  45.3287520  92.8818260  85.8638260  46.0711850  92.4673650
  85.3629240  45.5714090  93.8057220  77.4146250  39.0094060  91.6855400
  77.2943850  39.7356150  91.0736670  77.1047140  38.2396970  91.2083310
  76.2979250  43.8809390  93.9030220  75.8907330  44.0223980  93.0483820
  77.1892260  43.5969550  93.7001430  88.0912530  48.3156640  90.2381270
  87.9313670  48.0259580  91.1363100  87.9259240  47.5396770  89.7026500
  80.5700910  48.0955170  92.0152890  80.3943390  47.1790710  91.8020690
  79.7156650  48.4542460  92.2550690  87.7938660  45.8244200  88.7979270
  87.1003820  45.8221490  88.1381550  88.5361520  45.4003520  88.3673440
  87.3588590  47.4506910  92.8727760  87.8145540  46.6696290  93.1866380
  87.6981110  48.1613730  93.4168940  79.8809910  32.3529130  95.0679070
  79.4378060  33.1338670  94.7363590  80.4394900  32.6759020  95.7750010
  82.9968730  31.9739830  89.9484900  82.3722910  31.9699700  90.6738210
  82.9098850  31.1070790  89.5520870  79.6724130  37.4762700  92.7960320
  79.4465050  37.2599870  93.7006940  78.8916660  37.9091160  92.4506290
  86.9021890  37.4826070  91.3950970  86.3030780  38.2061870  91.2114590
  87.4501500  37.4202850  90.6127420  85.5086760  36.1189610  93.4254250
  85.9016330  36.4361810  92.6122940  85.8703610  35.2401490  93.5398770
  74.7321160  36.6510530  86.8587170  74.6495830  37.5941290  87.0002160
  74.3804220  36.5085440  85.9799520  82.5319290  35.3849560  95.9257520
  82.5355350  34.9439510  95.0762060  83.4270410  35.7066890  96.0329340
  78.3821670  35.2676050  94.8851730  78.0421720  35.7451280  95.6418780
  77.6198990  34.8141170  94.5252830  82.5939440  36.3861640  88.9164280
  82.7152260  36.3448120  89.8650100  82.2087950  37.2485790  88.7611010
  81.6060940  38.6962780  88.3147580  81.0377840  38.2481030  87.6883490
  82.3149940  39.0555560  87.7812730  75.6967750  34.1895030  93.8016400
  75.4114670  33.8250700  94.6395020  75.6346610  33.4575490  93.1879540
  79.1508420  42.6920970  90.5873990  78.3770680  42.1518590  90.4272710
  79.8803050  42.1727580  90.2491750  85.3706340  33.0824290  90.5229770
  84.5570950  32.5837460  90.4475080  85.1768290  33.9222540  90.1066120
  88.0854730  37.4543940  88.8191930  88.9734350  37.7661170  88.6443270
  88.0559820  36.5816190  88.4272510  79.1945820  42.3601350  94.2252800
  79.7124490  41.5569610  94.1709690  78.7429840  42.2980490  95.0669630
  84.0815320  43.6267630  89.4980100  84.4231020  44.3709860  89.0023420
  83.2528030  43.9398750  89.8604930  86.9642730  42.9483470  94.8625610
  87.3166550  42.3511600  94.2026980  86.0805060  42.6227700  95.0333860
  83.0506010  43.7081160  92.2696020  83.7377140  44.2550370  92.6503610
  82.2638430  44.2521890  92.3045630  75.1898410  39.3253980  87.7613100
  76.0593260  39.6078780  88.0449020  74.6988730  40.1389850  87.6461910
  82.3533220  40.7127190  91.8821380  82.8096000  41.5232440  92.1081570
  82.0021430  40.3950330  92.7139870  78.2545000  31.0564840  92.3543900
  78.1259630  31.0482740  93.3028820  77.4307020  31.3947930  92.0034910
  89.7753630  44.5114500  87.5530270  89.5491210  43.7944940  88.1454910
  89.3849830  44.2626940  86.7152020  75.5569660  48.5381360  88.3274730
  75.9167300  49.1370700  87.6732000  75.4162000  49.0841250  89.1009760
  89.3569880  42.4286440  89.2144430  89.0691580  42.8899130  90.0022310
  90.1522050  41.9684210  89.4828650  81.5738280  45.9212560  89.1448400
  81.5648380  46.6542250  88.5292910  80.6536640  45.6744140  89.2375360
  77.1744920  41.1427450  89.8895160  76.5672870  41.8826350  89.8990460
  77.6494270  41.2326810  89.0633360  90.1139740  34.2635210  90.3739610
  89.4852900  34.3680880  89.6597840  89.6191660  34.4831990  91.1633490
  84.5597880  45.9840800  87.8073590  84.6609860  45.7804790  86.8775570
  83.6599620  45.7299080  88.0121370  82.0823770  36.5421160  91.7897490
  81.3739920  37.0107500  92.2311100  82.3668250  35.8843170  92.4242680
  86.1139200  33.2671820  93.2293280  85.9906980  33.2857950  92.2802790
  87.0623760  33.3150760  93.3491680  83.2015990  48.5027120  92.5021260
  83.4557490  48.4648510  91.5800630  82.2528470  48.3760450  92.4949510
  80.2858790  34.8506240  89.1648200  81.1349320  35.2876390  89.0988390
  79.9190060  35.1626500  89.9920260  89.2068570  39.4219000  94.0779770
  88.2658710  39.4369230  94.2527460  89.5212640  38.6354960  94.5240070
  79.1850210  41.1038600  87.6383730  79.9513480  40.9919960  88.2009160
  79.2624900  40.4076570  86.9860500  77.8796970  38.5363670  88.3216620
  77.9600560  37.5891180  88.4334020  78.7716720  38.8670550  88.4277280
  78.6811680  48.6859060  95.4251160  79.4174160  48.1374520  95.6959730
  79.0652600  49.5515070  95.2857150  75.5657160  44.7532630  91.2992670
  74.6396940  44.9953770  91.2898080  76.0313590  45.5806890  91.1777420
  81.7913990  47.8589370  87.2476730  82.5842600  48.1478200  86.7958520
  81.2718340  47.4281540  86.5689210  82.3091390  43.0792780  87.1119080
  82.2042030  42.4645130  87.8380460  82.1415610  42.5558670  86.3282090
  85.5494120  42.1412810  87.7161070  85.0004220  42.5882110  88.3603810
  86.1713380  41.6362060  88.2398740  81.2169240  41.1003730  89.6126370
  81.6385660  40.9343600  90.4557760  81.3420080  40.2903960  89.1181510
  83.7296880  40.1241340  86.8603470  84.2502540  39.4090360  86.4944620
  84.3765280  40.7627210  87.1603980  80.1128140  37.1736960  86.5584530
  79.9117200  36.3104320  86.9197870  79.9420190  37.0870320  85.6206130
  87.5916450  31.9845190  89.0871410  87.8718740  31.1413090  89.4430830
  86.8182180  32.2168300  89.6010160  78.9110940  34.2737580  86.5462410
  79.2136840  34.2805010  85.6381560  79.6505530  33.9235440  87.0430070
  82.1295870  33.2172200  87.5318610  81.7817870  32.5396190  86.9521060
  82.3308640  32.7561710  88.3462000  84.2944910  48.2052950  89.1505210
  85.1895700  48.5437920  89.1723970  84.3262540  47.4832360  88.5229490
  77.9341070  43.5780000  87.3792210  78.3715940  44.1209670  88.0349790
  78.4188800  42.7526950  87.3888550  75.1486870  46.3669030  94.8312470
  75.4789880  45.4990090  94.5991110  75.5777870  46.5727550  95.6617430
  79.7448790  44.6978040  92.4914440  79.4444330  44.5743010  93.3918350
  79.6386280  43.8386630  92.0830170  75.4701510  39.7459850  93.9282980
  74.8150350  39.4771490  93.2842680  76.3079460  39.6364330  93.4784960
  88.4191950  34.5401140  88.1501470  88.8376830  34.3532120  87.3098130
  88.1128010  33.6880190  88.4604400  74.6839590  36.9558780  89.8708310
  73.7803670  37.2188980  89.6959970  75.1680210  37.2269950  89.0908270
  77.2266800  36.0124320  87.7802690  77.9358500  35.5907540  87.2949970
  76.5106740  36.0799550  87.1486040  76.8740960  32.0663650  86.8205340
  77.5969090  32.6072590  87.1386560  77.1465480  31.7927070  85.9446880
  90.0166950  48.2127200  93.4815840  90.6126020  47.8911770  92.8050260
  90.2745100  47.7399020  94.2729110  89.5068460  32.5032530  95.9376280
  89.9476550  32.4477630  95.0897880  89.2376050  33.4190540  96.0086460
  75.6759780  48.2740130  92.9109050  75.5081820  47.6410810  93.6090940
  74.8094290  48.4799530  92.5603240  76.2987800  32.1056910  90.4140910
  77.0567160  32.2185790  89.8404940  75.8364970  32.9426110  90.3684340
  82.8401610  34.2196180  93.4043220  82.0276120  33.8453070  93.0639100
  83.3443250  33.4641260  93.7064410  87.3426590  30.8838630  94.6426290
  87.9455960  31.4558840  95.1174810  86.6019580  31.4478070  94.4200190
  90.4861190  31.2860190  89.9166570  90.6811820  32.1843640  90.1834000
  89.6991060  31.0547270  90.4099520  77.2822480  46.9673360  90.3559190
  76.7570100  47.3481390  89.6521150  77.2067060  47.5924130  91.0768900
  78.6712950  32.6320960  88.9542880  79.2005710  31.8450760  88.8250830
  79.3041270  33.3112150  89.1878410  80.8650790  32.3696100  92.0088270
  80.2353530  31.6683410  92.1758400  80.3255930  33.1300230  91.7921430
  79.8815450  48.9155740  89.2308440  80.6134270  48.6315020  88.6832330
  80.1409120  48.6769020  90.1207820  79.0430240  45.0320470  89.2354770
  78.4139120  45.5005570  89.7840600  79.1578070  44.1869690  89.6700960
  86.4979960  39.0826130  75.3855970  86.4174010  38.1680740  75.1147680
  86.0844380  39.5793200  74.6795680  84.6298000  40.8605150  77.2665240
  83.8540100  40.3805590  77.5563810  85.2810930  40.1810800  77.0921400
  78.6463830  41.1724960  78.1441000  77.8148710  40.9173670  78.5437510
  79.2544810  41.2435730  78.8798920  88.6505430  45.2665340  76.0464370
  88.1886960  44.4952580  76.3751540  89.4630980  45.2931410  76.5516820
  78.6265090  45.2065050  78.3399020  78.9293130  44.3162790  78.1609240
  79.3708680  45.7635270  78.1121270  77.0555780  36.1326850  71.9283390
  76.1672480  36.4742820  71.8263270  77.3396970  35.9327170  71.0364220
  75.0188790  38.7332500  77.8123090  75.5904900  37.9654700  77.8126730
  75.0190330  39.0321260  76.9029700  84.8768740  47.5523350  75.6668360
  84.2580180  48.0080850  75.0962800  85.7320520  47.7074810  75.2658060
  84.0706990  43.5362340  77.2735400  84.0015270  42.5952280  77.1124530
  84.8326850  43.6263750  77.8457970  76.2613660  34.1416860  79.5992020
  76.0816500  33.2442610  79.8794780  75.8593740  34.6888730  80.2738970
  85.1012160  36.3432720  77.5004330  85.4776980  35.4704600  77.3878000
  85.0031670  36.6791420  76.6094770  79.2317170  34.7158350  72.9621770
  79.3383920  35.6162080  73.2690530  78.3209530  34.6676320  72.6716420
  88.8836280  33.8383160  74.4332670  89.7045900  33.3479730  74.4758150
  88.9170360  34.4280820  75.1864510  76.8800330  36.6377360  78.2074360
  77.5610440  36.9015730  78.8261760  76.5648380  35.7978230  78.5412370
  81.0724900  37.6844720  77.2946950  81.5803120  38.1825690  77.9351970
  81.6038140  36.9079920  77.1186310  79.3561000  32.3243280  81.5610370
  79.3579440  32.8415670  80.7556270  78.5265310  31.8473460  81.5380300
  85.7432090  42.4362590  73.0600270  85.1249360  42.9012040  72.4962990
  86.2555340  43.1290070  73.4769780  80.6063850  41.9638460  79.7383870
  80.2733230  42.5907380  80.3804940  80.7830530  42.4900340  78.9585540
  89.1197760  35.7783540  77.2060210  88.4153330  36.0668430  77.7863320
  89.4809920  36.5883650  76.8459770  79.0376330  34.0353240  79.5680820
  79.3793140  34.8795290  79.2734690  78.0992140  34.1836980  79.6846160
  79.8182950  43.9319260  81.5533050  80.4356950  44.6070340  81.2717500
  78.9576070  44.3407240  81.4620550  75.1115290  43.1219120  70.4339900
  74.7343270  43.6106220  69.7024800  75.3688360  43.7944400  71.0646430
  82.7204220  31.5235510  75.8925410  83.0279200  30.9682400  75.1760910
  81.7904920  31.6579970  75.7098400  88.2719280  47.2402800  78.1832870
  88.2846440  46.8365090  77.3155130  87.7194500  48.0150090  78.0794300
  89.5664700  43.9619020  73.2723040  89.4561030  43.0193350  73.3972460
  89.5632950  44.3234660  74.1585800  87.6704720  42.1432640  79.5115480
  88.0873510  41.9292750  78.6768940  88.3944540  42.4005430  80.0824100
  85.1084980  39.5884340  72.6285530  84.1814260  39.5221720  72.8574000
  85.2609800  40.5264470  72.5140770  85.0954060  35.8601340  69.6252690
  84.1557730  36.0215300  69.7105150  85.4137320  36.5787020  69.0788680
  89.1382270  41.1504640  73.1320780  88.5194690  40.8124190  72.4847080
  89.1206720  40.5064400  73.8399970  88.5808830  37.3289180  80.5486590
  88.1680010  38.1542890  80.8026580  87.8484780  36.7434220  80.3562950
  80.7141620  40.1149080  75.4105260  80.3098620  39.4026330  74.9151160
  80.8004740  39.7702320  76.2993300  81.1823320  43.8016640  77.5744470
  80.8851610  43.1962110  76.8952250  82.1323140  43.8393950  77.4633830
  79.4270240  36.8892290  79.1904300  79.9784830  36.9987630  78.4157550
  79.9413750  37.2629890  79.9059530  89.2708930  47.3748510  81.2367570
  88.7939490  48.1820700  81.0440180  88.5870720  46.7226840  81.3893780
  80.2741750  43.5398330  84.2252270  79.3770280  43.7638300  84.4725670
  80.2994620  43.6633270  83.2763670  87.3146970  40.3891450  70.1393530
  87.7540250  39.5513880  69.9931350  88.0275390  41.0220850  70.2257670
  79.1012970  40.4111650  82.8009640  78.9620740  41.2834450  83.1697040
  78.2194330  40.0684460  82.6557580  85.4242350  45.3287520  74.1074770
  85.8638260  46.0711850  73.6930160  85.3629240  45.5714090  75.0313730
  80.8993320  46.3533350  85.0094790  80.8708750  46.7576300  84.1423220
  80.7358290  45.4243710  84.8466390  77.4146250  39.0094060  72.9111910
  77.2943850  39.7356150  72.2993180  77.1047140  38.2396970  72.4339820
  75.0531620  42.1809200  78.7180550  75.1312040  42.3157970  77.7736270
  75.6673300  41.4725090  78.9108670  76.2979250  43.8809390  75.1286730
  75.8907330  44.0223980  74.2740330  77.1892260  43.5969550  74.9257940
  86.1158130  48.0301300  82.0353780  86.6302800  47.9409310  82.8376210
  85.2727210  48.3761000  82.3281690  88.0912530  48.3156640  71.4637780
  87.9313670  48.0259580  72.3619610  87.9259240  47.5396770  70.9283010
  80.5700910  48.0955170  73.2409400  80.3943390  47.1790710  73.0277200
  79.7156650  48.4542460  73.4807200  87.7938660  45.8244200  70.0235780
  87.1003820  45.8221490  69.3638060  88.5361520  45.4003520  69.5929950
  87.3588590  47.4506910  74.0984270  87.8145540  46.6696290  74.4122890
  87.6981110  48.1613730  74.6425450  75.1091140  43.2223370  81.2575010
  75.2722180  42.7528730  80.4394380  75.5743590  42.7146930  81.9223850
  79.8809910  32.3529130  76.2935580  79.4378060  33.1338670  75.9620100
  80.4394900  32.6759020  77.0006520  84.1679720  35.2197650  81.8970900
  83.7059090  35.4280670  82.7090840  83.7657830  34.4057000  81.5941570
  89.1684230  36.4406600  83.0267560  88.3177820  36.1412350  83.3476630
  89.0086020  36.6848610  82.1151380  86.2633940  37.9408350  85.1266350
  86.5887350  37.1072100  84.7868580  87.0514270  38.4636870  85.2744680
  82.9968730  31.9739830  71.1741410  82.3722910  31.9699700  71.8994720
  82.9098850  31.1070790  70.7777380  81.9185810  32.8976460  78.1525180
  82.2158140  33.8039290  78.0717200  82.4671370  32.4095240  77.5384750
  79.6724130  37.4762700  74.0216830  79.4465050  37.2599870  74.9263450
  78.8916660  37.9091160  73.6762800  86.9021890  37.4826070  72.6207480
  86.3030780  38.2061870  72.4371100  87.4501500  37.4202850  71.8383930
  82.1123340  38.3748280  84.6877100  82.0166940  37.4343010  84.5377500
  82.9555320  38.5963350  84.2925170  85.5086760  36.1189610  74.6510760
  85.9016330  36.4361810  73.8379450  85.8703610  35.2401490  74.7655280
  77.2433880  34.7861950  82.8410880  76.8497270  35.6337160  83.0483660
  76.5552280  34.1488320  83.0319520  83.8178930  34.8696920  85.9107620
  83.1277250  34.6769120  86.5453710  84.5611230  35.1531560  86.4431920
  74.5450930  32.7090410  76.8740960  74.2563980  33.2793270  77.5865940
  75.2896690  32.2294860  77.2372190  74.7321160  36.6510530  68.0843680
  74.6495830  37.5941290  68.2258670  74.3804220  36.5085440  67.2056030
  86.0941900  38.7095360  78.7461540  85.3623020  39.2182170  79.0951640
  85.6966240  37.8925340  78.4450320  82.5319290  35.3849560  77.1514030
  82.5355350  34.9439510  76.3018570  83.4270410  35.7066890  77.2585850
  78.3821670  35.2676050  76.1108240  78.0421720  35.7451280  76.8675290
  77.6198990  34.8141170  75.7509340  82.5939440  36.3861640  70.1420790
  82.7152260  36.3448120  71.0906610  82.2087950  37.2485790  69.9867520
  86.5567810  34.1629040  78.1584480  86.5740550  34.6137690  79.0026330
  86.3083390  33.2634680  78.3717920  81.6060940  38.6962780  69.5404090
  81.0377840  38.2481030  68.9140000  82.3149940  39.0555560  69.0069240
  89.9838560  31.5761220  83.9970860  90.3084330  30.8450880  84.5228840
  90.0195070  31.2574860  83.0951850  76.6830120  42.5974800  83.4170820
  76.2984910  41.9568470  84.0153780  76.9942310  43.3010920  83.9865550
  82.8327260  39.4451340  78.8979440  83.1997390  38.9709910  79.6440780
  82.6432320  40.3192910  79.2387780  75.6967750  34.1895030  75.0272910
  75.4114670  33.8250700  75.8651530  75.6346610  33.4575490  74.4136050
  80.6226630  38.4859980  81.2163650  80.3183700  39.3651960  81.4414010
  81.5773090  38.5459770  81.2521090  79.1508420  42.6920970  71.8130500
  78.3770680  42.1518590  71.6529220  79.8803050  42.1727580  71.4748260
  89.9096400  41.6886330  77.6056890  90.6295520  42.1841620  77.2153000
  89.7078220  41.0104220  76.9610760  85.3706340  33.0824290  71.7486280
  84.5570950  32.5837460  71.6731590  85.1768290  33.9222540  71.3322630
  85.2915200  41.7595390  83.4925890  85.2252510  40.8391060  83.2383480
  84.6620340  41.8570830  84.2070530  88.0854730  37.4543940  70.0448440
  88.9734350  37.7661170  69.8699780  88.0559820  36.5816190  69.6529020
  79.1945820  42.3601350  75.4509310  79.7124490  41.5569610  75.3966200
  78.7429840  42.2980490  76.2926140  84.0815320  43.6267630  70.7236610
  84.4231020  44.3709860  70.2279930  83.2528030  43.9398750  71.0861440
  76.6790360  39.3262720  82.3635010  76.3205300  39.9916570  82.9508350
  76.3844920  38.4946270  82.7347630  79.8803480  39.7846960  85.2474560
  79.5803620  39.9304140  84.3502380  80.6514720  39.2252250  85.1547950
  85.2231930  44.5815960  83.2429690  85.2376470  43.6496920  83.0248600
  84.5157030  44.6675720  83.8819460  86.9642730  42.9483470  76.0882120
  87.3166550  42.3511600  75.4283490  86.0805060  42.6227700  76.2590370
  83.0506010  43.7081160  73.4952530  83.7377140  44.2550370  73.8760120
  82.2638430  44.2521890  73.5302140  75.1898410  39.3253980  68.9869610
  76.0593260  39.6078780  69.2705530  74.6988730  40.1389850  68.8718420
  82.3533220  40.7127190  73.1077890  82.8096000  41.5232440  73.3338080
  82.0021430  40.3950330  73.9396380  84.6565830  46.2233530  80.3370190
  85.3008050  46.4292910  81.0143610  85.0195270  45.4621930  79.8841040
  78.2545000  31.0564840  73.5800410  78.1259630  31.0482740  74.5285330
  77.4307020  31.3947930  73.2291420  85.9297910  44.2265880  79.0547640
  86.5720140  43.5259040  79.1679810  86.4547260  45.0064320  78.8744530
  89.7753630  44.5114500  68.7786780  89.5491210  43.7944940  69.3711420
  89.3849830  44.2626940  67.9408530  87.7035530  45.0260780  82.2583700
  88.0391770  45.6127470  82.9361620  86.7835870  44.8953490  82.4881490
  75.5569660  48.5381360  69.5531240  75.9167300  49.1370700  68.8988510
  75.4162000  49.0841250  70.3266270  75.2538930  32.8155960  83.0407110
  74.5397450  33.0152880  83.6459720  75.6733970  32.0395530  83.4121910
  89.3569880  42.4286440  70.4400940  89.0691580  42.8899130  71.2278820
  90.1522050  41.9684210  70.7085160  75.5411520  46.8036220  84.0273640
  75.6502640  45.8630960  83.8869030  74.8892080  47.0690970  83.3787370
  83.5324110  45.0752110  85.4271760  83.2120980  44.3561350  85.9717450
  82.8582470  45.7507180  85.5007820  81.5738280  45.9212560  70.3704910
  81.5648380  46.6542250  69.7549420  80.6536640  45.6744140  70.4631870
  77.1744920  41.1427450  71.1151670  76.5672870  41.8826350  71.1246970
  77.6494270  41.2326810  70.2889870  86.7477710  35.3078270  80.7908560
  87.1158530  34.4873480  81.1188130  85.8875910  35.3680160  81.2064210
  90.1139740  34.2635210  71.5996120  89.4852900  34.3680880  70.8854350
  89.6191660  34.4831990  72.3890000  84.5597880  45.9840800  69.0330100
  84.6609860  45.7804790  68.1032080  83.6599620  45.7299080  69.2377880
  82.0823770  36.5421160  73.0154000  81.3739920  37.0107500  73.4567610
  82.3668250  35.8843170  73.6499190  83.7079700  37.9617860  81.0146530
  84.2064950  38.4363680  81.6798380  83.8502650  37.0381380  81.2216560
  86.1139200  33.2671820  74.4549790  85.9906980  33.2857950  73.5059300
  87.0623760  33.3150760  74.5748190  83.2015990  48.5027120  73.7277770
  83.4557490  48.4648510  72.8057140  82.2528470  48.3760450  73.7206020
  80.2858790  34.8506240  70.3904710  81.1349320  35.2876390  70.3244900
  79.9190060  35.1626500  71.2176770  89.2068570  39.4219000  75.3036280
  88.2658710  39.4369230  75.4783970  89.5212640  38.6354960  75.7496580
  79.1850210  41.1038600  68.8640240  79.9513480  40.9919960  69.4265670
  79.2624900  40.4076570  68.2117010  77.8796970  38.5363670  69.5473130
  77.9600560  37.5891180  69.6590530  78.7716720  38.8670550  69.6533790
  78.6811680  48.6859060  76.6507670  79.4174160  48.1374520  76.9216240
  79.0652600  49.5515070  76.5113660  75.5657160  44.7532630  72.5249180
  74.6396940  44.9953770  72.5154590  76.0313590  45.5806890  72.4033930
  77.6869960  47.8705130  85.8393250  78.4882690  48.1917180  86.2528650
  77.1721780  47.5100710  86.5613160  81.7913990  47.8589370  68.4733240
  82.5842600  48.1478200  68.0215030  81.2718340  47.4281540  67.7945720
  86.5234590  43.9785000  85.7868660  85.9172750  44.0016600  85.0464410
  86.2188700  43.2468040  86.3235910  87.9534960  47.7065290  84.3978070
  88.9056710  47.6223310  84.3478310  87.8063180  48.3707000  85.0711860
  75.4067770  40.3578590  84.7829300  75.9106790  39.7785870  85.3545530
  74.6675190  40.6418820  85.3205670  82.3091390  43.0792780  68.3375590
  82.2042030  42.4645130  69.0636970  82.1415610  42.5558670  67.5538600
  82.4605710  41.7649580  84.3164820  81.6951380  42.3334580  84.2319490
  82.6421670  41.4725790  83.4233050  85.5494120  42.1412810  68.9417580
  85.0004220  42.5882110  69.5860320  86.1713380  41.6362060  69.4655250
  89.6029060  43.4954910  84.8739840  90.3438530  43.8330670  84.3707300
  88.8401740  43.6646970  84.3209610  77.4390850  38.5008180  85.6779370
  77.4796190  38.2022050  86.5864600  78.2936350  38.9015790  85.5186890
  81.2169240  41.1003730  70.8382880  81.6385660  40.9343600  71.6814270
  81.3420080  40.2903960  70.3438020  79.3796660  37.0800280  83.6453860
  78.8493120  36.5891230  83.0177200  80.0484730  37.5084480  83.1111790
  83.7296880  40.1241340  68.0859980  84.2502540  39.4090360  67.7201130
  84.3765280  40.7627210  68.3860490  88.2774720  41.5469740  83.4095050
  88.6915740  41.7014820  84.2585470  87.3425720  41.6724960  83.5720830
  88.7496890  38.8865900  85.4134200  89.3317660  38.1318220  85.3254680
  88.9258660  39.4173340  84.6365680  79.8668960  34.0462650  83.7251150
  79.7725830  33.4283400  83.0002020  79.2866350  34.7728940  83.4981060
  82.6330400  32.6035890  80.7578540  82.1847700  32.6260150  79.9124090
  81.9995600  32.2054910  81.3548840  83.0389950  41.4990220  81.3790980
  83.4578060  42.3422950  81.2067220  82.1198580  41.6362260  81.1497760
  85.3753850  39.2306400  82.7628820  85.4950060  38.6347540  83.5023660
  86.2347850  39.2676090  82.3430120  87.7141750  39.7843590  81.3391330
  87.1876970  40.3086210  80.7356470  88.0573090  40.4170980  81.9701060
  80.1128140  37.1736960  67.7841040  79.9117200  36.3104320  68.1454380
  79.9420190  37.0870320  66.8462640  80.8897370  47.8043230  82.4948710
  80.3518460  48.5289290  82.1757410  81.1431330  47.3273570  81.7046050
  82.1422620  35.7727750  84.0204640  82.7322310  35.4643600  84.7082460
  81.3242860  35.3007500  84.1764540  86.9616050  35.3893560  84.2537660
  86.2731570  34.7275100  84.1887650  87.6822070  34.9431830  84.6986120
  87.5916450  31.9845190  70.3127920  87.8718740  31.1413090  70.6687340
  86.8182180  32.2168300  70.8266670  78.9110940  34.2737580  67.7718920
  79.2136840  34.2805010  66.8638070  79.6505530  33.9235440  68.2686580
  83.7459580  49.0394440  82.7535360  83.6718280  49.9429580  83.0607730
  82.8438420  48.7206340  82.7257430  82.1295870  33.2172200  68.7575120
  81.7817870  32.5396190  68.1777570  82.3308640  32.7561710  69.5718510
  84.2944910  48.2052950  70.3761720  85.1895700  48.5437920  70.3980480
  84.3262540  47.4832360  69.7486000  77.9341070  43.5780000  68.6048720
  78.3715940  44.1209670  69.2606300  78.4188800  42.7526950  68.6145060
  75.1486870  46.3669030  76.0568980  75.4789880  45.4990090  75.8247620
  75.5777870  46.5727550  76.8873940  79.7448790  44.6978040  73.7170950
  79.4444330  44.5743010  74.6174860  79.6386280  43.8386630  73.3086680
  75.6377080  47.2339620  78.7950610  75.2008070  47.4140420  79.6274760
  76.2054760  47.9914240  78.6532330  75.4701510  39.7459850  75.1539490
  74.8150350  39.4771490  74.5099190  76.3079460  39.6364330  74.7041470
  89.9590900  43.4608600  81.1804080  89.1450740  43.8905760  81.4429870
  90.3665100  44.0727010  80.5673130  88.4191950  34.5401140  69.3757980
  88.8376830  34.3532120  68.5354640  88.1128010  33.6880190  69.6860910
  76.5077440  40.1312420  79.6942830  76.8750480  40.0439820  80.5738850
  75.9388260  39.3678970  79.5949690  76.0593440  37.0421510  83.6001250
  75.1649490  37.0088270  83.9394960  76.5990990  37.2408300  84.3652500
  89.7469370  33.8253230  85.4853000  90.6239550  33.8336630  85.8687000
  89.7590210  33.0884070  84.8745350  74.6839590  36.9558780  71.0964820
  73.7803670  37.2188980  70.9216480  75.1680210  37.2269950  70.3164780
  77.2266800  36.0124320  69.0059200  77.9358500  35.5907540  68.5206480
  76.5106740  36.0799550  68.3742550  76.8740960  32.0663650  68.0461850
  77.5969090  32.6072590  68.3643070  77.1465480  31.7927070  67.1703390
  76.5633150  31.3169840  77.9484470  77.2109340  30.7667220  77.5079630
  76.9834990  31.5712990  78.7700280  90.0166950  48.2127200  74.7072350
  90.6126020  47.8911770  74.0306770  90.2745100  47.7399020  75.4985620
  76.3165150  31.4725510  80.6909790  75.9679970  31.9289330  81.4567970
  75.9852850  30.5782640  80.7732220  77.9229520  44.6445110  84.8562980
  77.8799150  44.2738020  85.7377440  78.0540530  45.5822680  84.9964800
  81.6235550  46.2004700  80.4572700  81.3826910  46.4679260  79.5703220
  82.5638190  46.3710430  80.5123560  83.8289970  32.6637390  84.2129210
  83.7678860  33.2559220  84.9624620  84.7690350  32.5563350  84.0679470
  86.4664530  32.3207450  83.8521500  87.0804940  32.6386740  83.1902580
  87.0114090  31.8356040  84.4717360  76.9885790  31.0001710  83.9660560
  77.5368780  30.8189760  83.2026670  77.0541100  30.2095820  84.5016870
  77.7617550  47.5907360  81.9760760  77.1677870  47.4592060  82.7150800
  77.7541390  46.7545500  81.5102860  87.2072570  30.8839590  80.1790790
  86.3332410  31.2174700  79.9763720  87.0983320  30.4112770  81.0042660
  88.1144550  33.0910460  81.5632510  87.7857910  32.2762220  81.1834240
  89.0626850  33.0480270  81.4398200  90.5679160  48.8622500  78.5370080
  90.1082130  49.6138310  78.1628100  89.9391620  48.1428970  78.4784880
  77.3929780  44.9565740  80.9268800  76.6663840  44.3371030  80.8594750
  77.4538930  45.3506350  80.0566880  80.9974880  47.1710740  77.7118210
  81.5139900  46.5598100  77.1866470  81.6472260  47.6739520  78.2029220
  83.7370380  48.0619230  78.5387190  84.0248190  47.8073530  77.6620200
  84.2493600  47.5096590  79.1292760  84.9547390  31.8009430  79.1183700
  84.1719180  32.2754930  79.3980460  84.6610320  30.8964260  79.0096880
  89.5068460  32.5032530  77.1632790  89.9476550  32.4477630  76.3154390
  89.2376050  33.4190540  77.2342970  75.6759780  48.2740130  74.1365560
  75.5081820  47.6410810  74.8347450  74.8094290  48.4799530  73.7859750
  76.2987800  32.1056910  71.6397420  77.0567160  32.2185790  71.0661450
  75.8364970  32.9426110  71.5940850  82.8401610  34.2196180  74.6299730
  82.0276120  33.8453070  74.2895610  83.3443250  33.4641260  74.9320920
  87.3426590  30.8838630  75.8682800  87.9455960  31.4558840  76.3431320
  86.6019580  31.4478070  75.6456700  90.4861190  31.2860190  71.1423080
  90.6811820  32.1843640  71.4090510  89.6991060  31.0547270  71.6356030
  77.2822480  46.9673360  71.5815700  76.7570100  47.3481390  70.8777660
  77.2067060  47.5924130  72.3025410  78.6712950  32.6320960  70.1799390
  79.2005710  31.8450760  70.0507340  79.3041270  33.3112150  70.4134920
  80.8650790  32.3696100  73.2344780  80.2353530  31.6683410  73.4014910
  80.3255930  33.1300230  73.0177940  83.8042740  48.9835330  85.9055390
  84.7310050  48.7479600  85.9491350  83.7893170  49.8107330  85.4241420
  80.9906350  31.6480080  85.6697270  80.7090620  32.1513680  84.9058090
  81.3726050  30.8501830  85.3039400  79.8815450  48.9155740  70.4564950
  80.6134270  48.6315020  69.9088840  80.1409120  48.6769020  71.3464330
  79.0430240  45.0320470  70.4611280  78.4139120  45.5005570  71.0097110
  79.1578070  44.1869690  70.8957470  87.5921810  31.0633660  86.2477740
  87.4787260  31.3828270  87.1429260  88.4091550  31.4646170  85.9515020
  86.4979960  39.0826130  56.6112480  86.4174010  38.1680740  56.3404190
  86.0844380  39.5793200  55.9052190  84.6298000  40.8605150  58.4921750
  83.8540100  40.3805590  58.7820320  85.2810930  40.1810800  58.3177910
  78.6463830  41.1724960  59.3697510  77.8148710  40.9173670  59.7694020
  79.2544810  41.2435730  60.1055430  88.6505430  45.2665340  57.2720880
  88.1886960  44.4952580  57.6008050  89.4630980  45.2931410  57.7773330
  78.6265090  45.2065050  59.5655530  78.9293130  44.3162790  59.3865750
  79.3708680  45.7635270  59.3377780  77.0555780  36.1326850  53.1539900
  76.1672480  36.4742820  53.0519780  77.3396970  35.9327170  52.2620730
  75.0188790  38.7332500  59.0379600  75.5904900  37.9654700  59.0383240
  75.0190330  39.0321260  58.1286210  84.8768740  47.5523350  56.8924870
  84.2580180  48.0080850  56.3219310  85.7320520  47.7074810  56.4914570
  84.0706990  43.5362340  58.4991910  84.0015270  42.5952280  58.3381040
  84.8326850  43.6263750  59.0714480  76.2613660  34.1416860  60.8248530
  76.0816500  33.2442610  61.1051290  75.8593740  34.6888730  61.4995480
  85.1012160  36.3432720  58.7260840  85.4776980  35.4704600  58.6134510
  85.0031670  36.6791420  57.8351280  79.2317170  34.7158350  54.1878280
  79.3383920  35.6162080  54.4947040  78.3209530  34.6676320  53.8972930
  88.8836280  33.8383160  55.6589180  89.7045900  33.3479730  55.7014660
  88.9170360  34.4280820  56.4121020  76.8800330  36.6377360  59.4330870
  77.5610440  36.9015730  60.0518270  76.5648380  35.7978230  59.7668880
  81.0724900  37.6844720  58.5203460  81.5803120  38.1825690  59.1608480
  81.6038140  36.9079920  58.3442820  79.3561000  32.3243280  62.7866880
  79.3579440  32.8415670  61.9812780  78.5265310  31.8473460  62.7636810
  85.7432090  42.4362590  54.2856780  85.1249360  42.9012040  53.7219500
  86.2555340  43.1290070  54.7026290  80.6063850  41.9638460  60.9640380
  80.2733230  42.5907380  61.6061450  80.7830530  42.4900340  60.1842050
  89.1197760  35.7783540  58.4316720  88.4153330  36.0668430  59.0119830
  89.4809920  36.5883650  58.0716280  79.0376330  34.0353240  60.7937330
  79.3793140  34.8795290  60.4991200  78.0992140  34.1836980  60.9102670
  79.8182950  43.9319260  62.7789560  80.4356950  44.6070340  62.4974010
  78.9576070  44.3407240  62.6877060  75.1115290  43.1219120  51.6596410
  74.7343270  43.6106220  50.9281310  75.3688360  43.7944400  52.2902940
  82.7204220  31.5235510  57.1181920  83.0279200  30.9682400  56.4017420
  81.7904920  31.6579970  56.9354910  88.2719280  47.2402800  59.4089380
  88.2846440  46.8365090  58.5411640  87.7194500  48.0150090  59.3050810
  89.5664700  43.9619020  54.4979550  89.4561030  43.0193350  54.6228970
  89.5632950  44.3234660  55.3842310  87.6704720  42.1432640  60.7371990
  88.0873510  41.9292750  59.9025450  88.3944540  42.4005430  61.3080610
  85.1084980  39.5884340  53.8542040  84.1814260  39.5221720  54.0830510
  85.2609800  40.5264470  53.7397280  85.0954060  35.8601340  50.8509200
  84.1557730  36.0215300  50.9361660  85.4137320  36.5787020  50.3045190
  89.1382270  41.1504640  54.3577290  88.5194690  40.8124190  53.7103590
  89.1206720  40.5064400  55.0656480  88.5808830  37.3289180  61.7743100
  88.1680010  38.1542890  62.0283090  87.8484780  36.7434220  61.5819460
  80.7141620  40.1149080  56.6361770  80.3098620  39.4026330  56.1407670
  80.8004740  39.7702320  57.5249810  81.1823320  43.8016640  58.8000980
  80.8851610  43.1962110  58.1208760  82.1323140  43.8393950  58.6890340
  79.4270240  36.8892290  60.4160810  79.9784830  36.9987630  59.6414060
  79.9413750  37.2629890  61.1316040  89.2708930  47.3748510  62.4624080
  88.7939490  48.1820700  62.2696690  88.5870720  46.7226840  62.6150290
  80.2741750  43.5398330  65.4508780  79.3770280  43.7638300  65.6982180
  80.2994620  43.6633270  64.5020180  87.3146970  40.3891450  51.3650040
  87.7540250  39.5513880  51.2187860  88.0275390  41.0220850  51.4514180
  79.1012970  40.4111650  64.0266150  78.9620740  41.2834450  64.3953550
  78.2194330  40.0684460  63.8814090  85.4242350  45.3287520  55.3331280
  85.8638260  46.0711850  54.9186670  85.3629240  45.5714090  56.2570240
  80.8993320  46.3533350  66.2351300  80.8708750  46.7576300  65.3679730
  80.7358290  45.4243710  66.0722900  77.4146250  39.0094060  54.1368420
  77.2943850  39.7356150  53.5249690  77.1047140  38.2396970  53.6596330
  75.0531620  42.1809200  59.9437060  75.1312040  42.3157970  58.9992780
  75.6673300  41.4725090  60.1365180  76.2979250  43.8809390  56.3543240
  75.8907330  44.0223980  55.4996840  77.1892260  43.5969550  56.1514450
  86.1158130  48.0301300  63.2610290  86.6302800  47.9409310  64.0632720
  85.2727210  48.3761000  63.5538200  88.0912530  48.3156640  52.6894290
  87.9313670  48.0259580  53.5876120  87.9259240  47.5396770  52.1539520
  80.5700910  48.0955170  54.4665910  80.3943390  47.1790710  54.2533710
  79.7156650  48.4542460  54.7063710  87.7938660  45.8244200  51.2492290
  87.1003820  45.8221490  50.5894570  88.5361520  45.4003520  50.8186460
  87.3588590  47.4506910  55.3240780  87.8145540  46.6696290  55.6379400
  87.6981110  48.1613730  55.8681960  75.1091140  43.2223370  62.4831520
  75.2722180  42.7528730  61.6650890  75.5743590  42.7146930  63.1480360
  79.8809910  32.3529130  57.5192090  79.4378060  33.1338670  57.1876610
  80.4394900  32.6759020  58.2263030  84.1679720  35.2197650  63.1227410
  83.7059090  35.4280670  63.9347350  83.7657830  34.4057000  62.8198080
  89.1684230  36.4406600  64.2524070  88.3177820  36.1412350  64.5733140
  89.0086020  36.6848610  63.3407890  86.2633940  37.9408350  66.3522860
  86.5887350  37.1072100  66.0125090  87.0514270  38.4636870  66.5001190
  82.9968730  31.9739830  52.3997920  82.3722910  31.9699700  53.1251230
  82.9098850  31.1070790  52.0033890  81.9185810  32.8976460  59.3781690
  82.2158140  33.8039290  59.2973710  82.4671370  32.4095240  58.7641260
  79.6724130  37.4762700  55.2473340  79.4465050  37.2599870  56.1519960
  78.8916660  37.9091160  54.9019310  86.9021890  37.4826070  53.8463990
  86.3030780  38.2061870  53.6627610  87.4501500  37.4202850  53.0640440
  82.1123340  38.3748280  65.9133610  82.0166940  37.4343010  65.7634010
  82.9555320  38.5963350  65.5181680  85.5086760  36.1189610  55.8767270
  85.9016330  36.4361810  55.0635960  85.8703610  35.2401490  55.9911790
  77.2433880  34.7861950  64.0667390  76.8497270  35.6337160  64.2740170
  76.5552280  34.1488320  64.2576030  83.8178930  34.8696920  67.1364130
  83.1277250  34.6769120  67.7710220  84.5611230  35.1531560  67.6688430
  74.5450930  32.7090410  58.0997470  74.2563980  33.2793270  58.8122450
  75.2896690  32.2294860  58.4628700  74.7321160  36.6510530  49.3100190
  74.6495830  37.5941290  49.4515180  74.3804220  36.5085440  48.4312540
  86.0941900  38.7095360  59.9718050  85.3623020  39.2182170  60.3208150
  85.6966240  37.8925340  59.6706830  82.5319290  35.3849560  58.3770540
  82.5355350  34.9439510  57.5275080  83.4270410  35.7066890  58.4842360
  78.3821670  35.2676050  57.3364750  78.0421720  35.7451280  58.0931800
  77.6198990  34.8141170  56.9765850  82.5939440  36.3861640  51.3677300
  82.7152260  36.3448120  52.3163120  82.2087950  37.2485790  51.2124030
  86.5567810  34.1629040  59.3840990  86.5740550  34.6137690  60.2282840
  86.3083390  33.2634680  59.5974430  81.6060940  38.6962780  50.7660600
  81.0377840  38.2481030  50.1396510  82.3149940  39.0555560  50.2325750
  89.9838560  31.5761220  65.2227370  90.3084330  30.8450880  65.7485350
  90.0195070  31.2574860  64.3208360  76.6830120  42.5974800  64.6427330
  76.2984910  41.9568470  65.2410290  76.9942310  43.3010920  65.2122060
  82.8327260  39.4451340  60.1235950  83.1997390  38.9709910  60.8697290
  82.6432320  40.3192910  60.4644290  75.6967750  34.1895030  56.2529420
  75.4114670  33.8250700  57.0908040  75.6346610  33.4575490  55.6392560
  80.6226630  38.4859980  62.4420160  80.3183700  39.3651960  62.6670520
  81.5773090  38.5459770  62.4777600  79.1508420  42.6920970  53.0387010
  78.3770680  42.1518590  52.8785730  79.8803050  42.1727580  52.7004770
  89.9096400  41.6886330  58.8313400  90.6295520  42.1841620  58.4409510
  89.7078220  41.0104220  58.1867270  85.3706340  33.0824290  52.9742790
  84.5570950  32.5837460  52.8988100  85.1768290  33.9222540  52.5579140
  85.2915200  41.7595390  64.7182400  85.2252510  40.8391060  64.4639990
  84.6620340  41.8570830  65.4327040  88.0854730  37.4543940  51.2704950
  88.9734350  37.7661170  51.0956290  88.0559820  36.5816190  50.8785530
  79.1945820  42.3601350  56.6765820  79.7124490  41.5569610  56.6222710
  78.7429840  42.2980490  57.5182650  84.0815320  43.6267630  51.9493120
  84.4231020  44.3709860  51.4536440  83.2528030  43.9398750  52.3117950
  76.6790360  39.3262720  63.5891520  76.3205300  39.9916570  64.1764860
  76.3844920  38.4946270  63.9604140  79.8803480  39.7846960  66.4731070
  79.5803620  39.9304140  65.5758890  80.6514720  39.2252250  66.3804460
  85.2231930  44.5815960  64.4686200  85.2376470  43.6496920  64.2505110
  84.5157030  44.6675720  65.1075970  86.9642730  42.9483470  57.3138630
  87.3166550  42.3511600  56.6540000  86.0805060  42.6227700  57.4846880
  83.0506010  43.7081160  54.7209040  83.7377140  44.2550370  55.1016630
  82.2638430  44.2521890  54.7558650  75.1898410  39.3253980  50.2126120
  76.0593260  39.6078780  50.4962040  74.6988730  40.1389850  50.0974930
  82.3533220  40.7127190  54.3334400  82.8096000  41.5232440  54.5594590
  82.0021430  40.3950330  55.1652890  84.6565830  46.2233530  61.5626700
  85.3008050  46.4292910  62.2400120  85.0195270  45.4621930  61.1097550
  78.2545000  31.0564840  54.8056920  78.1259630  31.0482740  55.7541840
  77.4307020  31.3947930  54.4547930  85.9297910  44.2265880  60.2804150
  86.5720140  43.5259040  60.3936320  86.4547260  45.0064320  60.1001040
  89.7753630  44.5114500  50.0043290  89.5491210  43.7944940  50.5967930
  89.3849830  44.2626940  49.1665040  87.7035530  45.0260780  63.4840210
  88.0391770  45.6127470  64.1618130  86.7835870  44.8953490  63.7138000
  75.5569660  48.5381360  50.7787750  75.9167300  49.1370700  50.1245020
  75.4162000  49.0841250  51.5522780  75.2538930  32.8155960  64.2663620
  74.5397450  33.0152880  64.8716230  75.6733970  32.0395530  64.6378420
  89.3569880  42.4286440  51.6657450  89.0691580  42.8899130  52.4535330
  90.1522050  41.9684210  51.9341670  75.5411520  46.8036220  65.2530150
  75.6502640  45.8630960  65.1125540  74.8892080  47.0690970  64.6043880
  83.5324110  45.0752110  66.6528270  83.2120980  44.3561350  67.1973960
  82.8582470  45.7507180  66.7264330  81.5738280  45.9212560  51.5961420
  81.5648380  46.6542250  50.9805930  80.6536640  45.6744140  51.6888380
  77.1744920  41.1427450  52.3408180  76.5672870  41.8826350  52.3503480
  77.6494270  41.2326810  51.5146380  86.7477710  35.3078270  62.0165070
  87.1158530  34.4873480  62.3444640  85.8875910  35.3680160  62.4320720
  90.1139740  34.2635210  52.8252630  89.4852900  34.3680880  52.1110860
  89.6191660  34.4831990  53.6146510  84.5597880  45.9840800  50.2586610
  84.6609860  45.7804790  49.3288590  83.6599620  45.7299080  50.4634390
  82.0823770  36.5421160  54.2410510  81.3739920  37.0107500  54.6824120
  82.3668250  35.8843170  54.8755700  83.7079700  37.9617860  62.2403040
  84.2064950  38.4363680  62.9054890  83.8502650  37.0381380  62.4473070
  86.1139200  33.2671820  55.6806300  85.9906980  33.2857950  54.7315810
  87.0623760  33.3150760  55.8004700  83.2015990  48.5027120  54.9534280
  83.4557490  48.4648510  54.0313650  82.2528470  48.3760450  54.9462530
  80.2858790  34.8506240  51.6161220  81.1349320  35.2876390  51.5501410
  79.9190060  35.1626500  52.4433280  89.2068570  39.4219000  56.5292790
  88.2658710  39.4369230  56.7040480  89.5212640  38.6354960  56.9753090
  79.1850210  41.1038600  50.0896750  79.9513480  40.9919960  50.6522180
  79.2624900  40.4076570  49.4373520  77.8796970  38.5363670  50.7729640
  77.9600560  37.5891180  50.8847040  78.7716720  38.8670550  50.8790300
  78.6811680  48.6859060  57.8764180  79.4174160  48.1374520  58.1472750
  79.0652600  49.5515070  57.7370170  75.5657160  44.7532630  53.7505690
  74.6396940  44.9953770  53.7411100  76.0313590  45.5806890  53.6290440
  77.6869960  47.8705130  67.0649760  78.4882690  48.1917180  67.4785160
  77.1721780  47.5100710  67.7869670  81.7913990  47.8589370  49.6989750
  82.5842600  48.1478200  49.2471540  81.2718340  47.4281540  49.0202230
  86.5234590  43.9785000  67.0125170  85.9172750  44.0016600  66.2720920
  86.2188700  43.2468040  67.5492420  87.9534960  47.7065290  65.6234580
  88.9056710  47.6223310  65.5734820  87.8063180  48.3707000  66.2968370
  75.4067770  40.3578590  66.0085810  75.9106790  39.7785870  66.5802040
  74.6675190  40.6418820  66.5462180  82.3091390  43.0792780  49.5632100
  82.2042030  42.4645130  50.2893480  82.1415610  42.5558670  48.7795110
  82.4605710  41.7649580  65.5421330  81.6951380  42.3334580  65.4576000
  82.6421670  41.4725790  64.6489560  85.5494120  42.1412810  50.1674090
  85.0004220  42.5882110  50.8116830  86.1713380  41.6362060  50.6911760
  89.6029060  43.4954910  66.0996350  90.3438530  43.8330670  65.5963810
  88.8401740  43.6646970  65.5466120  77.4390850  38.5008180  66.9035880
  77.4796190  38.2022050  67.8121110  78.2936350  38.9015790  66.7443400
  81.2169240  41.1003730  52.0639390  81.6385660  40.9343600  52.9070780
  81.3420080  40.2903960  51.5694530  79.3796660  37.0800280  64.8710370
  78.8493120  36.5891230  64.2433710  80.0484730  37.5084480  64.3368300
  83.7296880  40.1241340  49.3116490  84.2502540  39.4090360  48.9457640
  84.3765280  40.7627210  49.6117000  88.2774720  41.5469740  64.6351560
  88.6915740  41.7014820  65.4841980  87.3425720  41.6724960  64.7977340
  88.7496890  38.8865900  66.6390710  89.3317660  38.1318220  66.5511190
  88.9258660  39.4173340  65.8622190  79.8668960  34.0462650  64.9507660
  79.7725830  33.4283400  64.2258530  79.2866350  34.7728940  64.7237570
  82.6330400  32.6035890  61.9835050  82.1847700  32.6260150  61.1380600
  81.9995600  32.2054910  62.5805350  83.0389950  41.4990220  62.6047490
  83.4578060  42.3422950  62.4323730  82.1198580  41.6362260  62.3754270
  85.3753850  39.2306400  63.9885330  85.4950060  38.6347540  64.7280170
  86.2347850  39.2676090  63.5686630  87.7141750  39.7843590  62.5647840
  87.1876970  40.3086210  61.9612980  88.0573090  40.4170980  63.1957570
  80.1128140  37.1736960  49.0097550  79.9117200  36.3104320  49.3710890
  79.9420190  37.0870320  48.0719150  80.8897370  47.8043230  63.7205220
  80.3518460  48.5289290  63.4013920  81.1431330  47.3273570  62.9302560
  82.1422620  35.7727750  65.2461150  82.7322310  35.4643600  65.9338970
  81.3242860  35.3007500  65.4021050  86.9616050  35.3893560  65.4794170
  86.2731570  34.7275100  65.4144160  87.6822070  34.9431830  65.9242630
  87.5916450  31.9845190  51.5384430  87.8718740  31.1413090  51.8943850
  86.8182180  32.2168300  52.0523180  78.9110940  34.2737580  48.9975430
  79.2136840  34.2805010  48.0894580  79.6505530  33.9235440  49.4943090
  83.7459580  49.0394440  63.9791870  83.6718280  49.9429580  64.2864240
  82.8438420  48.7206340  63.9513940  82.1295870  33.2172200  49.9831630
  81.7817870  32.5396190  49.4034080  82.3308640  32.7561710  50.7975020
  84.2944910  48.2052950  51.6018230  85.1895700  48.5437920  51.6236990
  84.3262540  47.4832360  50.9742510  77.9341070  43.5780000  49.8305230
  78.3715940  44.1209670  50.4862810  78.4188800  42.7526950  49.8401570
  75.1486870  46.3669030  57.2825490  75.4789880  45.4990090  57.0504130
  75.5777870  46.5727550  58.1130450  79.7448790  44.6978040  54.9427460
  79.4444330  44.5743010  55.8431370  79.6386280  43.8386630  54.5343190
  75.6377080  47.2339620  60.0207120  75.2008070  47.4140420  60.8531270
  76.2054760  47.9914240  59.8788840  75.4701510  39.7459850  56.3796000
  74.8150350  39.4771490  55.7355700  76.3079460  39.6364330  55.9297980
  89.9590900  43.4608600  62.4060590  89.1450740  43.8905760  62.6686380
  90.3665100  44.0727010  61.7929640  88.4191950  34.5401140  50.6014490
  88.8376830  34.3532120  49.7611150  88.1128010  33.6880190  50.9117420
  76.5077440  40.1312420  60.9199340  76.8750480  40.0439820  61.7995360
  75.9388260  39.3678970  60.8206200  76.0593440  37.0421510  64.8257760
  75.1649490  37.0088270  65.1651470  76.5990990  37.2408300  65.5909010
  89.7469370  33.8253230  66.7109510  90.6239550  33.8336630  67.0943510
  89.7590210  33.0884070  66.1001860  74.6839590  36.9558780  52.3221330
  73.7803670  37.2188980  52.1472990  75.1680210  37.2269950  51.5421290
  77.2266800  36.0124320  50.2315710  77.9358500  35.5907540  49.7462990
  76.5106740  36.0799550  49.5999060  76.8740960  32.0663650  49.2718360
  77.5969090  32.6072590  49.5899580  77.1465480  31.7927070  48.3959900
  76.5633150  31.3169840  59.1740980  77.2109340  30.7667220  58.7336140
  76.9834990  31.5712990  59.9956790  90.0166950  48.2127200  55.9328860
  90.6126020  47.8911770  55.2563280  90.2745100  47.7399020  56.7242130
  76.3165150  31.4725510  61.9166300  75.9679970  31.9289330  62.6824480
  75.9852850  30.5782640  61.9988730  77.9229520  44.6445110  66.0819490
  77.8799150  44.2738020  66.9633950  78.0540530  45.5822680  66.2221310
  81.6235550  46.2004700  61.6829210  81.3826910  46.4679260  60.7959730
  82.5638190  46.3710430  61.7380070  83.8289970  32.6637390  65.4385720
  83.7678860  33.2559220  66.1881130  84.7690350  32.5563350  65.2935980
  86.4664530  32.3207450  65.0778010  87.0804940  32.6386740  64.4159090
  87.0114090  31.8356040  65.6973870  76.9885790  31.0001710  65.1917070
  77.5368780  30.8189760  64.4283180  77.0541100  30.2095820  65.7273380
  77.7617550  47.5907360  63.2017270  77.1677870  47.4592060  63.9407310
  77.7541390  46.7545500  62.7359370  87.2072570  30.8839590  61.4047300
  86.3332410  31.2174700  61.2020230  87.0983320  30.4112770  62.2299170
  88.1144550  33.0910460  62.7889020  87.7857910  32.2762220  62.4090750
  89.0626850  33.0480270  62.6654710  90.5679160  48.8622500  59.7626590
  90.1082130  49.6138310  59.3884610  89.9391620  48.1428970  59.7041390
  77.3929780  44.9565740  62.1525310  76.6663840  44.3371030  62.0851260
  77.4538930  45.3506350  61.2823390  80.9974880  47.1710740  58.9374720
  81.5139900  46.5598100  58.4122980  81.6472260  47.6739520  59.4285730
  83.7370380  48.0619230  59.7643700  84.0248190  47.8073530  58.8876710
  84.2493600  47.5096590  60.3549270  84.9547390  31.8009430  60.3440210
  84.1719180  32.2754930  60.6236970  84.6610320  30.8964260  60.2353390
  89.5068460  32.5032530  58.3889300  89.9476550  32.4477630  57.5410900
  89.2376050  33.4190540  58.4599480  75.6759780  48.2740130  55.3622070
  75.5081820  47.6410810  56.0603960  74.8094290  48.4799530  55.0116260
  76.2987800  32.1056910  52.8653930  77.0567160  32.2185790  52.2917960
  75.8364970  32.9426110  52.8197360  82.8401610  34.2196180  55.8556240
  82.0276120  33.8453070  55.5152120  83.3443250  33.4641260  56.1577430
  87.3426590  30.8838630  57.0939310  87.9455960  31.4558840  57.5687830
  86.6019580  31.4478070  56.8713210  90.4861190  31.2860190  52.3679590
  90.6811820  32.1843640  52.6347020  89.6991060  31.0547270  52.8612540
  77.2822480  46.9673360  52.8072210  76.7570100  47.3481390  52.1034170
  77.2067060  47.5924130  53.5281920  78.6712950  32.6320960  51.4055900
  79.2005710  31.8450760  51.2763850  79.3041270  33.3112150  51.6391430
  80.8650790  32.3696100  54.4601290  80.2353530  31.6683410  54.6271420
  80.3255930  33.1300230  54.2434450  83.8042740  48.9835330  67.1311900
  84.7310050  48.7479600  67.1747860  83.7893170  49.8107330  66.6497930
  80.9906350  31.6480080  66.8953780  80.7090620  32.1513680  66.1314600
  81.3726050  30.8501830  66.5295910  79.8815450  48.9155740  51.6821460
  80.6134270  48.6315020  51.1345350  80.1409120  48.6769020  52.5720840
  79.0430240  45.0320470  51.6867790  78.4139120  45.5005570  52.2353620
  79.1578070  44.1869690  52.1213980  87.5921810  31.0633660  67.4734250
  87.4787260  31.3828270  68.3685770  88.4091550  31.4646170  67.1771530
  86.4979960  39.0826130  37.8368990  86.4174010  38.1680740  37.5660700
  86.0844380  39.5793200  37.1308700  84.6298000  40.8605150  39.7178260
  83.8540100  40.3805590  40.0076830  85.2810930  40.1810800  39.5434420
  78.6463830  41.1724960  40.5954020  77.8148710  40.9173670  40.9950530
  79.2544810  41.2435730  41.3311940  88.6505430  45.2665340  38.4977390
  88.1886960  44.4952580  38.8264560  89.4630980  45.2931410  39.0029840
  78.6265090  45.2065050  40.7912040  78.9293130  44.3162790  40.6122260
  79.3708680  45.7635270  40.5634290  77.0555780  36.1326850  34.3796410
  76.1672480  36.4742820  34.2776290  77.3396970  35.9327170  33.4877240
  75.0188790  38.7332500  40.2636110  75.5904900  37.9654700  40.2639750
  75.0190330  39.0321260  39.3542720  84.8768740  47.5523350  38.1181380
  84.2580180  48.0080850  37.5475820  85.7320520  47.7074810  37.7171080
  84.0706990  43.5362340  39.7248420  84.0015270  42.5952280  39.5637550
  84.8326850  43.6263750  40.2970990  76.2613660  34.1416860  42.0505040
  76.0816500  33.2442610  42.3307800  75.8593740  34.6888730  42.7251990
  85.1012160  36.3432720  39.9517350  85.4776980  35.4704600  39.8391020
  85.0031670  36.6791420  39.0607790  79.2317170  34.7158350  35.4134790
  79.3383920  35.6162080  35.7203550  78.3209530  34.6676320  35.1229440
  88.8836280  33.8383160  36.8845690  89.7045900  33.3479730  36.9271170
  88.9170360  34.4280820  37.6377530  76.8800330  36.6377360  40.6587380
  77.5610440  36.9015730  41.2774780  76.5648380  35.7978230  40.9925390
  81.0724900  37.6844720  39.7459970  81.5803120  38.1825690  40.3864990
  81.6038140  36.9079920  39.5699330  79.3561000  32.3243280  44.0123390
  79.3579440  32.8415670  43.2069290  78.5265310  31.8473460  43.9893320
  85.7432090  42.4362590  35.5113290  85.1249360  42.9012040  34.9476010
  86.2555340  43.1290070  35.9282800  80.6063850  41.9638460  42.1896890
  80.2733230  42.5907380  42.8317960  80.7830530  42.4900340  41.4098560
  89.1197760  35.7783540  39.6573230  88.4153330  36.0668430  40.2376340
  89.4809920  36.5883650  39.2972790  79.0376330  34.0353240  42.0193840
  79.3793140  34.8795290  41.7247710  78.0992140  34.1836980  42.1359180
  79.8182950  43.9319260  44.0046070  80.4356950  44.6070340  43.7230520
  78.9576070  44.3407240  43.9133570  75.1115290  43.1219120  32.8852920
  74.7343270  43.6106220  32.1537820  75.3688360  43.7944400  33.5159450
  82.7204220  31.5235510  38.3438430  83.0279200  30.9682400  37.6273930
  81.7904920  31.6579970  38.1611420  88.2719280  47.2402800  40.6345890
  88.2846440  46.8365090  39.7668150  87.7194500  48.0150090  40.5307320
  89.5664700  43.9619020  35.7236060  89.4561030  43.0193350  35.8485480
  89.5632950  44.3234660  36.6098820  87.6704720  42.1432640  41.9628500
  88.0873510  41.9292750  41.1281960  88.3944540  42.4005430  42.5337120
  85.1084980  39.5884340  35.0798550  84.1814260  39.5221720  35.3087020
  85.2609800  40.5264470  34.9653790  85.0954060  35.8601340  32.0765710
  84.1557730  36.0215300  32.1618170  85.4137320  36.5787020  31.5301700
  89.1382270  41.1504640  35.5833800  88.5194690  40.8124190  34.9360100
  89.1206720  40.5064400  36.2912990  88.5808830  37.3289180  42.9999610
  88.1680010  38.1542890  43.2539600  87.8484780  36.7434220  42.8075970
  80.7141620  40.1149080  37.8618280  80.3098620  39.4026330  37.3664180
  80.8004740  39.7702320  38.7506320  81.1823320  43.8016640  40.0257490
  80.8851610  43.1962110  39.3465270  82.1323140  43.8393950  39.9146850
  79.4270240  36.8892290  41.6417320  79.9784830  36.9987630  40.8670570
  79.9413750  37.2629890  42.3572550  89.2708930  47.3748510  43.6880590
  88.7939490  48.1820700  43.4953200  88.5870720  46.7226840  43.8406800
  80.2741750  43.5398330  46.6765290  79.3770280  43.7638300  46.9238690
  80.2994620  43.6633270  45.7276690  87.3146970  40.3891450  32.5906550
  87.7540250  39.5513880  32.4444370  88.0275390  41.0220850  32.6770690
  79.1012970  40.4111650  45.2522660  78.9620740  41.2834450  45.6210060
  78.2194330  40.0684460  45.1070600  85.4242350  45.3287520  36.5587790
  85.8638260  46.0711850  36.1443180  85.3629240  45.5714090  37.4826750
  80.8993320  46.3533350  47.4607810  80.8708750  46.7576300  46.5936240
  80.7358290  45.4243710  47.2979410  77.4146250  39.0094060  35.3624930
  77.2943850  39.7356150  34.7506200  77.1047140  38.2396970  34.8852840
  75.0531620  42.1809200  41.1693570  75.1312040  42.3157970  40.2249290
  75.6673300  41.4725090  41.3621690  76.2979250  43.8809390  37.5799750
  75.8907330  44.0223980  36.7253350  77.1892260  43.5969550  37.3770960
  86.1158130  48.0301300  44.4866800  86.6302800  47.9409310  45.2889230
  85.2727210  48.3761000  44.7794710  88.0912530  48.3156640  33.9150800
  87.9313670  48.0259580  34.8132630  87.9259240  47.5396770  33.3796030
  80.5700910  48.0955170  35.6922420  80.3943390  47.1790710  35.4790220
  79.7156650  48.4542460  35.9320220  87.7938660  45.8244200  32.4748800
  87.1003820  45.8221490  31.8151080  88.5361520  45.4003520  32.0442970
  87.3588590  47.4506910  36.5497290  87.8145540  46.6696290  36.8635910
  87.6981110  48.1613730  37.0938470  75.1091140  43.2223370  43.7088030
  75.2722180  42.7528730  42.8907400  75.5743590  42.7146930  44.3736870
  79.8809910  32.3529130  38.7448600  79.4378060  33.1338670  38.4133120
  80.4394900  32.6759020  39.4519540  84.1679720  35.2197650  44.3483920
  83.7059090  35.4280670  45.1603860  83.7657830  34.4057000  44.0454590
  89.1684230  36.4406600  45.4780580  88.3177820  36.1412350  45.7989650
  89.0086020  36.6848610  44.5664400  86.2633940  37.9408350  47.5779370
  86.5887350  37.1072100  47.2381600  87.0514270  38.4636870  47.7257700
  82.9968730  31.9739830  33.6254430  82.3722910  31.9699700  34.3507740
  82.9098850  31.1070790  33.2290400  81.9185810  32.8976460  40.6038200
  82.2158140  33.8039290  40.5230220  82.4671370  32.4095240  39.9897770
  79.6724130  37.4762700  36.4729850  79.4465050  37.2599870  37.3776470
  78.8916660  37.9091160  36.1275820  86.9021890  37.4826070  35.0720500
  86.3030780  38.2061870  34.8884120  87.4501500  37.4202850  34.2896950
  82.1123340  38.3748280  47.1390120  82.0166940  37.4343010  46.9890520
  82.9555320  38.5963350  46.7438190  85.5086760  36.1189610  37.1023780
  85.9016330  36.4361810  36.2892470  85.8703610  35.2401490  37.2168300
  77.2433880  34.7861950  45.2923900  76.8497270  35.6337160  45.4996680
  76.5552280  34.1488320  45.4832540  83.8178930  34.8696920  48.3620640
  83.1277250  34.6769120  48.9966730  84.5611230  35.1531560  48.8944940
  74.5450930  32.7090410  39.3253980  74.2563980  33.2793270  40.0378960
  75.2896690  32.2294860  39.6885210  74.7321160  36.6510530  30.5356700
  74.6495830  37.5941290  30.6771690  74.3804220  36.5085440  29.6569050
  86.0941900  38.7095360  41.1974560  85.3623020  39.2182170  41.5464660
  85.6966240  37.8925340  40.8963340  82.5319290  35.3849560  39.6027050
  82.5355350  34.9439510  38.7531590  83.4270410  35.7066890  39.7098870
  78.3821670  35.2676050  38.5621260  78.0421720  35.7451280  39.3188310
  77.6198990  34.8141170  38.2022360  82.5939440  36.3861640  32.5933810
  82.7152260  36.3448120  33.5419630  82.2087950  37.2485790  32.4380540
  86.5567810  34.1629040  40.6097500  86.5740550  34.6137690  41.4539350
  86.3083390  33.2634680  40.8230940  81.6060940  38.6962780  31.9917110
  81.0377840  38.2481030  31.3653020  82.3149940  39.0555560  31.4582260
  89.9838560  31.5761220  46.4483880  90.3084330  30.8450880  46.9741860
  90.0195070  31.2574860  45.5464870  76.6830120  42.5974800  45.8683840
  76.2984910  41.9568470  46.4666800  76.9942310  43.3010920  46.4378570
  82.8327260  39.4451340  41.3492460  83.1997390  38.9709910  42.0953800
  82.6432320  40.3192910  41.6900800  75.6967750  34.1895030  37.4785930
  75.4114670  33.8250700  38.3164550  75.6346610  33.4575490  36.8649070
  80.6226630  38.4859980  43.6676670  80.3183700  39.3651960  43.8927030
  81.5773090  38.5459770  43.7034110  79.1508420  42.6920970  34.2643520
  78.3770680  42.1518590  34.1042240  79.8803050  42.1727580  33.9261280
  89.9096400  41.6886330  40.0569910  90.6295520  42.1841620  39.6666020
  89.7078220  41.0104220  39.4123780  85.3706340  33.0824290  34.1999300
  84.5570950  32.5837460  34.1244610  85.1768290  33.9222540  33.7835650
  85.2915200  41.7595390  45.9438910  85.2252510  40.8391060  45.6896500
  84.6620340  41.8570830  46.6583550  88.0854730  37.4543940  32.4961460
  88.9734350  37.7661170  32.3212800  88.0559820  36.5816190  32.1042040
  79.1945820  42.3601350  37.9022330  79.7124490  41.5569610  37.8479220
  78.7429840  42.2980490  38.7439160  84.0815320  43.6267630  33.1749630
  84.4231020  44.3709860  32.6792950  83.2528030  43.9398750  33.5374460
  76.6790360  39.3262720  44.8148030  76.3205300  39.9916570  45.4021370
  76.3844920  38.4946270  45.1860650  79.8803480  39.7846960  47.6987580
  79.5803620  39.9304140  46.8015400  80.6514720  39.2252250  47.6060970
  85.2231930  44.5815960  45.6942710  85.2376470  43.6496920  45.4761620
  84.5157030  44.6675720  46.3332480  86.9642730  42.9483470  38.5395140
  87.3166550  42.3511600  37.8796510  86.0805060  42.6227700  38.7103390
  83.0506010  43.7081160  35.9465550  83.7377140  44.2550370  36.3273140
  82.2638430  44.2521890  35.9815160  75.1898410  39.3253980  31.4382630
  76.0593260  39.6078780  31.7218550  74.6988730  40.1389850  31.3231440
  82.3533220  40.7127190  35.5590910  82.8096000  41.5232440  35.7851100
  82.0021430  40.3950330  36.3909400  84.6565830  46.2233530  42.7883210
  85.3008050  46.4292910  43.4656630  85.0195270  45.4621930  42.3354060
  78.2545000  31.0564840  36.0313430  78.1259630  31.0482740  36.9798350
  77.4307020  31.3947930  35.6804440  85.9297910  44.2265880  41.5060660
  86.5720140  43.5259040  41.6192830  86.4547260  45.0064320  41.3257550
  89.7753630  44.5114500  31.2299800  89.5491210  43.7944940  31.8224440
  89.3849830  44.2626940  30.3921550  87.7035530  45.0260780  44.7096720
  88.0391770  45.6127470  45.3874640  86.7835870  44.8953490  44.9394510
  75.5569660  48.5381360  32.0044260  75.9167300  49.1370700  31.3501530
  75.4162000  49.0841250  32.7779290  75.2538930  32.8155960  45.4920130
  74.5397450  33.0152880  46.0972740  75.6733970  32.0395530  45.8634930
  89.3569880  42.4286440  32.8913960  89.0691580  42.8899130  33.6791840
  90.1522050  41.9684210  33.1598180  75.5411520  46.8036220  46.4786660
  75.6502640  45.8630960  46.3382050  74.8892080  47.0690970  45.8300390
  83.5324110  45.0752110  47.8784780  83.2120980  44.3561350  48.4230470
  82.8582470  45.7507180  47.9520840  81.5738280  45.9212560  32.8217930
  81.5648380  46.6542250  32.2062440  80.6536640  45.6744140  32.9144890
  77.1744920  41.1427450  33.5664690  76.5672870  41.8826350  33.5759990
  77.6494270  41.2326810  32.7402890  86.7477710  35.3078270  43.2421580
  87.1158530  34.4873480  43.5701150  85.8875910  35.3680160  43.6577230
  90.1139740  34.2635210  34.0509140  89.4852900  34.3680880  33.3367370
  89.6191660  34.4831990  34.8403020  84.5597880  45.9840800  31.4843120
  84.6609860  45.7804790  30.5545100  83.6599620  45.7299080  31.6890900
  82.0823770  36.5421160  35.4667020  81.3739920  37.0107500  35.9080630
  82.3668250  35.8843170  36.1012210  83.7079700  37.9617860  43.4659550
  84.2064950  38.4363680  44.1311400  83.8502650  37.0381380  43.6729580
  86.1139200  33.2671820  36.9062810  85.9906980  33.2857950  35.9572320
  87.0623760  33.3150760  37.0261210  83.2015990  48.5027120  36.1790790
  83.4557490  48.4648510  35.2570160  82.2528470  48.3760450  36.1719040
  80.2858790  34.8506240  32.8417730  81.1349320  35.2876390  32.7757920
  79.9190060  35.1626500  33.6689790  89.2068570  39.4219000  37.7549300
  88.2658710  39.4369230  37.9296990  89.5212640  38.6354960  38.2009600
  79.1850210  41.1038600  31.3153260  79.9513480  40.9919960  31.8778690
  79.2624900  40.4076570  30.6630030  77.8796970  38.5363670  31.9986150
  77.9600560  37.5891180  32.1103550  78.7716720  38.8670550  32.1046810
  78.6811680  48.6859060  39.1020690  79.4174160  48.1374520  39.3729260
  79.0652600  49.5515070  38.9626680  75.5657160  44.7532630  34.9762200
  74.6396940  44.9953770  34.9667610  76.0313590  45.5806890  34.8546950
  77.6869960  47.8705130  48.2906270  78.4882690  48.1917180  48.7041670
  77.1721780  47.5100710  49.0126180  81.7913990  47.8589370  30.9246260
  82.5842600  48.1478200  30.4728050  81.2718340  47.4281540  30.2458740
  86.5234590  43.9785000  48.2381680  85.9172750  44.0016600  47.4977430
  86.2188700  43.2468040  48.7748930  87.9534960  47.7065290  46.8491090
  88.9056710  47.6223310  46.7991330  87.8063180  48.3707000  47.5224880
  75.4067770  40.3578590  47.2342320  75.9106790  39.7785870  47.8058550
  74.6675190  40.6418820  47.7718690  82.3091390  43.0792780  30.7888610
  82.2042030  42.4645130  31.5149990  82.1415610  42.5558670  30.0051620
  82.4605710  41.7649580  46.7677840  81.6951380  42.3334580  46.6832510
  82.6421670  41.4725790  45.8746070  85.5494120  42.1412810  31.3930600
  85.0004220  42.5882110  32.0373340  86.1713380  41.6362060  31.9168270
  89.6029060  43.4954910  47.3252860  90.3438530  43.8330670  46.8220320
  88.8401740  43.6646970  46.7722630  77.4390850  38.5008180  48.1292390
  77.4796190  38.2022050  49.0377620  78.2936350  38.9015790  47.9699910
  81.2169240  41.1003730  33.2895900  81.6385660  40.9343600  34.1327290
  81.3420080  40.2903960  32.7951040  79.3796660  37.0800280  46.0966880
  78.8493120  36.5891230  45.4690220  80.0484730  37.5084480  45.5624810
  83.7296880  40.1241340  30.5373000  84.2502540  39.4090360  30.1714150
  84.3765280  40.7627210  30.8373510  88.2774720  41.5469740  45.8608070
  88.6915740  41.7014820  46.7098490  87.3425720  41.6724960  46.0233850
  88.7496890  38.8865900  47.8647220  89.3317660  38.1318220  47.7767700
  88.9258660  39.4173340  47.0878700  79.8668960  34.0462650  46.1764170
  79.7725830  33.4283400  45.4515040  79.2866350  34.7728940  45.9494080
  82.6330400  32.6035890  43.2091560  82.1847700  32.6260150  42.3637110
  81.9995600  32.2054910  43.8061860  83.0389950  41.4990220  43.8304000
  83.4578060  42.3422950  43.6580240  82.1198580  41.6362260  43.6010780
  85.3753850  39.2306400  45.2141840  85.4950060  38.6347540  45.9536680
  86.2347850  39.2676090  44.7943140  87.7141750  39.7843590  43.7904350
  87.1876970  40.3086210  43.1869490  88.0573090  40.4170980  44.4214080
  80.1128140  37.1736960  30.2354060  79.9117200  36.3104320  30.5967400
  79.9420190  37.0870320  29.2975660  80.8897370  47.8043230  44.9461730
  80.3518460  48.5289290  44.6270430  81.1431330  47.3273570  44.1559070
  82.1422620  35.7727750  46.4717660  82.7322310  35.4643600  47.1595480
  81.3242860  35.3007500  46.6277560  86.9616050  35.3893560  46.7050680
  86.2731570  34.7275100  46.6400670  87.6822070  34.9431830  47.1499140
  87.5916450  31.9845190  32.7640940  87.8718740  31.1413090  33.1200360
  86.8182180  32.2168300  33.2779690  78.9110940  34.2737580  30.2231940
  79.2136840  34.2805010  29.3151090  79.6505530  33.9235440  30.7199600
  83.7459580  49.0394440  45.2048380  83.6718280  49.9429580  45.5120750
  82.8438420  48.7206340  45.1770450  82.1295870  33.2172200  31.2088140
  81.7817870  32.5396190  30.6290590  82.3308640  32.7561710  32.0231530
  84.2944910  48.2052950  32.8274740  85.1895700  48.5437920  32.8493500
  84.3262540  47.4832360  32.1999020  77.9341070  43.5780000  31.0561740
  78.3715940  44.1209670  31.7119320  78.4188800  42.7526950  31.0658080
  75.1486870  46.3669030  38.5082000  75.4789880  45.4990090  38.2760640
  75.5777870  46.5727550  39.3386960  79.7448790  44.6978040  36.1683970
  79.4444330  44.5743010  37.0687880  79.6386280  43.8386630  35.7599700
  75.6377080  47.2339620  41.2463630  75.2008070  47.4140420  42.0787780
  76.2054760  47.9914240  41.1045350  75.4701510  39.7459850  37.6052510
  74.8150350  39.4771490  36.9612210  76.3079460  39.6364330  37.1554490
  89.9590900  43.4608600  43.6317100  89.1450740  43.8905760  43.8942890
  90.3665100  44.0727010  43.0186150  88.4191950  34.5401140  31.8271000
  88.8376830  34.3532120  30.9867660  88.1128010  33.6880190  32.1373930
  76.5077440  40.1312420  42.1455850  76.8750480  40.0439820  43.0251870
  75.9388260  39.3678970  42.0462710  76.0593440  37.0421510  46.0514270
  75.1649490  37.0088270  46.3907980  76.5990990  37.2408300  46.8165520
  89.7469370  33.8253230  47.9366020  90.6239550  33.8336630  48.3200020
  89.7590210  33.0884070  47.3258370  74.6839590  36.9558780  33.5477840
  73.7803670  37.2188980  33.3729500  75.1680210  37.2269950  32.7677800
  77.2266800  36.0124320  31.4572220  77.9358500  35.5907540  30.9719500
  76.5106740  36.0799550  30.8255570  76.8740960  32.0663650  30.4974870
  77.5969090  32.6072590  30.8156090  77.1465480  31.7927070  29.6216410
  76.5633150  31.3169840  40.3997490  77.2109340  30.7667220  39.9592650
  76.9834990  31.5712990  41.2213300  90.0166950  48.2127200  37.1585370
  90.6126020  47.8911770  36.4819790  90.2745100  47.7399020  37.9498640
  76.3165150  31.4725510  43.1422810  75.9679970  31.9289330  43.9080990
  75.9852850  30.5782640  43.2245240  77.9229520  44.6445110  47.3076000
  77.8799150  44.2738020  48.1890460  78.0540530  45.5822680  47.4477820
  81.6235550  46.2004700  42.9085720  81.3826910  46.4679260  42.0216240
  82.5638190  46.3710430  42.9636580  83.8289970  32.6637390  46.6642230
  83.7678860  33.2559220  47.4137640  84.7690350  32.5563350  46.5192490
  86.4664530  32.3207450  46.3034520  87.0804940  32.6386740  45.6415600
  87.0114090  31.8356040  46.9230380  76.9885790  31.0001710  46.4173580
  77.5368780  30.8189760  45.6539690  77.0541100  30.2095820  46.9529890
  77.7617550  47.5907360  44.4273780  77.1677870  47.4592060  45.1663820
  77.7541390  46.7545500  43.9615880  87.2072570  30.8839590  42.6303810
  86.3332410  31.2174700  42.4276740  87.0983320  30.4112770  43.4555680
  88.1144550  33.0910460  44.0145530  87.7857910  32.2762220  43.6347260
  89.0626850  33.0480270  43.8911220  90.5679160  48.8622500  40.9883100
  90.1082130  49.6138310  40.6141120  89.9391620  48.1428970  40.9297900
  77.3929780  44.9565740  43.3781820  76.6663840  44.3371030  43.3107770
  77.4538930  45.3506350  42.5079900  80.9974880  47.1710740  40.1631230
  81.5139900  46.5598100  39.6379490  81.6472260  47.6739520  40.6542240
  83.7370380  48.0619230  40.9900210  84.0248190  47.8073530  40.1133220
  84.2493600  47.5096590  41.5805780  84.9547390  31.8009430  41.5696720
  84.1719180  32.2754930  41.8493480  84.6610320  30.8964260  41.4609900
  89.5068460  32.5032530  39.6145810  89.9476550  32.4477630  38.7667410
  89.2376050  33.4190540  39.6855990  75.6759780  48.2740130  36.5878580
  75.5081820  47.6410810  37.2860470  74.8094290  48.4799530  36.2372770
  76.2987800  32.1056910  34.0910440  77.0567160  32.2185790  33.5174470
  75.8364970  32.9426110  34.0453870  82.8401610  34.2196180  37.0812750
  82.0276120  33.8453070  36.7408630  83.3443250  33.4641260  37.3833940
  87.3426590  30.8838630  38.3195820  87.9455960  31.4558840  38.7944340
  86.6019580  31.4478070  38.0969720  90.4861190  31.2860190  33.5936100
  90.6811820  32.1843640  33.8603530  89.6991060  31.0547270  34.0869050
  77.2822480  46.9673360  34.0328720  76.7570100  47.3481390  33.3290680
  77.2067060  47.5924130  34.7538430  78.6712950  32.6320960  32.6312410
  79.2005710  31.8450760  32.5020360  79.3041270  33.3112150  32.8647940
  80.8650790  32.3696100  35.6857800  80.2353530  31.6683410  35.8527930
  80.3255930  33.1300230  35.4690960  83.8042740  48.9835330  48.3568410
  84.7310050  48.7479600  48.4004370  83.7893170  49.8107330  47.8754440
  80.9906350  31.6480080  48.1210290  80.7090620  32.1513680  47.3571110
  81.3726050  30.8501830  47.7552420  79.8815450  48.9155740  32.9077970
  80.6134270  48.6315020  32.3601860  80.1409120  48.6769020  33.7977350
  79.0430240  45.0320470  32.9124300  78.4139120  45.5005570  33.4610130
  79.1578070  44.1869690  33.3470490  87.5921810  31.0633660  48.6990760
  87.4787260  31.3828270  49.5942280  88.4091550  31.4646170  48.4028040
  86.4979960  39.0826130  19.0625500  86.4174010  38.1680740  18.7917210
  86.0844380  39.5793200  18.3565210  84.6298000  40.8605150  20.9434770
  83.8540100  40.3805590  21.2333340  85.2810930  40.1810800  20.7690930
  78.6463830  41.1724960  21.8210530  77.8148710  40.9173670  22.2207040
  79.2544810  41.2435730  22.5568450  88.6505430  45.2665340  19.7233900
  88.1886960  44.4952580  20.0521070  89.4630980  45.2931410  20.2286350
  78.6265090  45.2065050  22.0168550  78.9293130  44.3162790  21.8378770
  79.3708680  45.7635270  21.7890800  77.0555780  36.1326850  15.6052920
  76.1672480  36.4742820  15.5032800  77.3396970  35.9327170  14.7133750
  75.0188790  38.7332500  21.4892620  75.5904900  37.9654700  21.4896260
  75.0190330  39.0321260  20.5799230  84.8768740  47.5523350  19.3437890
  84.2580180  48.0080850  18.7732330  85.7320520  47.7074810  18.9427590
  84.0706990  43.5362340  20.9504930  84.0015270  42.5952280  20.7894060
  84.8326850  43.6263750  21.5227500  76.2613660  34.1416860  23.2761550
  76.0816500  33.2442610  23.5564310  75.8593740  34.6888730  23.9508500
  85.1012160  36.3432720  21.1773860  85.4776980  35.4704600  21.0647530
  85.0031670  36.6791420  20.2864300  79.2317170  34.7158350  16.6391300
  79.3383920  35.6162080  16.9460060  78.3209530  34.6676320  16.3485950
  88.8836280  33.8383160  18.1102200  89.7045900  33.3479730  18.1527680
  88.9170360  34.4280820  18.8634040  76.8800330  36.6377360  21.8843890
  77.5610440  36.9015730  22.5031290  76.5648380  35.7978230  22.2181900
  81.0724900  37.6844720  20.9716480  81.5803120  38.1825690  21.6121500
  81.6038140  36.9079920  20.7955840  79.3561000  32.3243280  25.2379900
  79.3579440  32.8415670  24.4325800  78.5265310  31.8473460  25.2149830
  85.7432090  42.4362590  16.7369800  85.1249360  42.9012040  16.1732520
  86.2555340  43.1290070  17.1539310  80.6063850  41.9638460  23.4153400
  80.2733230  42.5907380  24.0574470  80.7830530  42.4900340  22.6355070
  89.1197760  35.7783540  20.8829740  88.4153330  36.0668430  21.4632850
  89.4809920  36.5883650  20.5229300  79.0376330  34.0353240  23.2450350
  79.3793140  34.8795290  22.9504220  78.0992140  34.1836980  23.3615690
  79.8182950  43.9319260  25.2302580  80.4356950  44.6070340  24.9487030
  78.9576070  44.3407240  25.1390080  75.1115290  43.1219120  14.1109430
  74.7343270  43.6106220  13.3794330  75.3688360  43.7944400  14.7415960
  82.7204220  31.5235510  19.5694940  83.0279200  30.9682400  18.8530440
  81.7904920  31.6579970  19.3867930  88.2719280  47.2402800  21.8602400
  88.2846440  46.8365090  20.9924660  87.7194500  48.0150090  21.7563830
  89.5664700  43.9619020  16.9492570  89.4561030  43.0193350  17.0741990
  89.5632950  44.3234660  17.8355330  87.6704720  42.1432640  23.1885010
  88.0873510  41.9292750  22.3538470  88.3944540  42.4005430  23.7593630
  85.1084980  39.5884340  16.3055060  84.1814260  39.5221720  16.5343530
  85.2609800  40.5264470  16.1910300  85.0954060  35.8601340  13.3022220
  84.1557730  36.0215300  13.3874680  85.4137320  36.5787020  12.7558210
  89.1382270  41.1504640  16.8090310  88.5194690  40.8124190  16.1616610
  89.1206720  40.5064400  17.5169500  88.5808830  37.3289180  24.2256120
  88.1680010  38.1542890  24.4796110  87.8484780  36.7434220  24.0332480
  80.7141620  40.1149080  19.0874790  80.3098620  39.4026330  18.5920690
  80.8004740  39.7702320  19.9762830  81.1823320  43.8016640  21.2514000
  80.8851610  43.1962110  20.5721780  82.1323140  43.8393950  21.1403360
  79.4270240  36.8892290  22.8673830  79.9784830  36.9987630  22.0927080
  79.9413750  37.2629890  23.5829060  89.2708930  47.3748510  24.9137100
  88.7939490  48.1820700  24.7209710  88.5870720  46.7226840  25.0663310
  80.2741750  43.5398330  27.9021800  79.3770280  43.7638300  28.1495200
  80.2994620  43.6633270  26.9533200  87.3146970  40.3891450  13.8163060
  87.7540250  39.5513880  13.6700880  88.0275390  41.0220850  13.9027200
  79.1012970  40.4111650  26.4779170  78.9620740  41.2834450  26.8466570
  78.2194330  40.0684460  26.3327110  85.4242350  45.3287520  17.7844300
  85.8638260  46.0711850  17.3699690  85.3629240  45.5714090  18.7083260
  80.8993320  46.3533350  28.6864320  80.8708750  46.7576300  27.8192750
  80.7358290  45.4243710  28.5235920  77.4146250  39.0094060  16.5881440
  77.2943850  39.7356150  15.9762710  77.1047140  38.2396970  16.1109350
  75.0531620  42.1809200  22.3950080  75.1312040  42.3157970  21.4505800
  75.6673300  41.4725090  22.5878200  76.2979250  43.8809390  18.8056260
  75.8907330  44.0223980  17.9509860  77.1892260  43.5969550  18.6027470
  86.1158130  48.0301300  25.7123310  86.6302800  47.9409310  26.5145740
  85.2727210  48.3761000  26.0051220  88.0912530  48.3156640  15.1407310
  87.9313670  48.0259580  16.0389140  87.9259240  47.5396770  14.6052540
  80.5700910  48.0955170  16.9178930  80.3943390  47.1790710  16.7046730
  79.7156650  48.4542460  17.1576730  87.7938660  45.8244200  13.7005310
  87.1003820  45.8221490  13.0407590  88.5361520  45.4003520  13.2699480
  87.3588590  47.4506910  17.7753800  87.8145540  46.6696290  18.0892420
  87.6981110  48.1613730  18.3194980  75.1091140  43.2223370  24.9344540
  75.2722180  42.7528730  24.1163910  75.5743590  42.7146930  25.5993380
  79.8809910  32.3529130  19.9705110  79.4378060  33.1338670  19.6389630
  80.4394900  32.6759020  20.6776050  84.1679720  35.2197650  25.5740430
  83.7059090  35.4280670  26.3860370  83.7657830  34.4057000  25.2711100
  89.1684230  36.4406600  26.7037090  88.3177820  36.1412350  27.0246160
  89.0086020  36.6848610  25.7920910  86.2633940  37.9408350  28.8035880
  86.5887350  37.1072100  28.4638110  87.0514270  38.4636870  28.9514210
  82.9968730  31.9739830  14.8510940  82.3722910  31.9699700  15.5764250
  82.9098850  31.1070790  14.4546910  81.9185810  32.8976460  21.8294710
  82.2158140  33.8039290  21.7486730  82.4671370  32.4095240  21.2154280
  79.6724130  37.4762700  17.6986360  79.4465050  37.2599870  18.6032980
  78.8916660  37.9091160  17.3532330  86.9021890  37.4826070  16.2977010
  86.3030780  38.2061870  16.1140630  87.4501500  37.4202850  15.5153460
  82.1123340  38.3748280  28.3646630  82.0166940  37.4343010  28.2147030
  82.9555320  38.5963350  27.9694700  85.5086760  36.1189610  18.3280290
  85.9016330  36.4361810  17.5148980  85.8703610  35.2401490  18.4424810
  77.2433880  34.7861950  26.5180410  76.8497270  35.6337160  26.7253190
  76.5552280  34.1488320  26.7089050  83.8178930  34.8696920  29.5877150
  83.1277250  34.6769120  30.2223240  84.5611230  35.1531560  30.1201450
  74.5450930  32.7090410  20.5510490  74.2563980  33.2793270  21.2635470
  75.2896690  32.2294860  20.9141720  74.7321160  36.6510530  11.7613210
  74.6495830  37.5941290  11.9028200  74.3804220  36.5085440  10.8825560
  86.0941900  38.7095360  22.4231070  85.3623020  39.2182170  22.7721170
  85.6966240  37.8925340  22.1219850  82.5319290  35.3849560  20.8283560
  82.5355350  34.9439510  19.9788100  83.4270410  35.7066890  20.9355380
  78.3821670  35.2676050  19.7877770  78.0421720  35.7451280  20.5444820
  77.6198990  34.8141170  19.4278870  82.5939440  36.3861640  13.8190320
  82.7152260  36.3448120  14.7676140  82.2087950  37.2485790  13.6637050
  86.5567810  34.1629040  21.8354010  86.5740550  34.6137690  22.6795860
  86.3083390  33.2634680  22.0487450  81.6060940  38.6962780  13.2173620
  81.0377840  38.2481030  12.5909530  82.3149940  39.0555560  12.6838770
  89.9838560  31.5761220  27.6740390  90.3084330  30.8450880  28.1998370
  90.0195070  31.2574860  26.7721380  76.6830120  42.5974800  27.0940350
  76.2984910  41.9568470  27.6923310  76.9942310  43.3010920  27.6635080
  82.8327260  39.4451340  22.5748970  83.1997390  38.9709910  23.3210310
  82.6432320  40.3192910  22.9157310  75.6967750  34.1895030  18.7042440
  75.4114670  33.8250700  19.5421060  75.6346610  33.4575490  18.0905580
  80.6226630  38.4859980  24.8933180  80.3183700  39.3651960  25.1183540
  81.5773090  38.5459770  24.9290620  79.1508420  42.6920970  15.4900030
  78.3770680  42.1518590  15.3298750  79.8803050  42.1727580  15.1517790
  89.9096400  41.6886330  21.2826420  90.6295520  42.1841620  20.8922530
  89.7078220  41.0104220  20.6380290  85.3706340  33.0824290  15.4255810
  84.5570950  32.5837460  15.3501120  85.1768290  33.9222540  15.0092160
  85.2915200  41.7595390  27.1695420  85.2252510  40.8391060  26.9153010
  84.6620340  41.8570830  27.8840060  88.0854730  37.4543940  13.7217970
  88.9734350  37.7661170  13.5469310  88.0559820  36.5816190  13.3298550
  79.1945820  42.3601350  19.1278840  79.7124490  41.5569610  19.0735730
  78.7429840  42.2980490  19.9695670  84.0815320  43.6267630  14.4006140
  84.4231020  44.3709860  13.9049460  83.2528030  43.9398750  14.7630970
  76.6790360  39.3262720  26.0404540  76.3205300  39.9916570  26.6277880
  76.3844920  38.4946270  26.4117160  79.8803480  39.7846960  28.9244090
  79.5803620  39.9304140  28.0271910  80.6514720  39.2252250  28.8317480
  85.2231930  44.5815960  26.9199220  85.2376470  43.6496920  26.7018130
  84.5157030  44.6675720  27.5588990  86.9642730  42.9483470  19.7651650
  87.3166550  42.3511600  19.1053020  86.0805060  42.6227700  19.9359900
  83.0506010  43.7081160  17.1722060  83.7377140  44.2550370  17.5529650
  82.2638430  44.2521890  17.2071670  75.1898410  39.3253980  12.6639140
  76.0593260  39.6078780  12.9475060  74.6988730  40.1389850  12.5487950
  82.3533220  40.7127190  16.7847420  82.8096000  41.5232440  17.0107610
  82.0021430  40.3950330  17.6165910  84.6565830  46.2233530  24.0139720
  85.3008050  46.4292910  24.6913140  85.0195270  45.4621930  23.5610570
  78.2545000  31.0564840  17.2569940  78.1259630  31.0482740  18.2054860
  77.4307020  31.3947930  16.9060950  85.9297910  44.2265880  22.7317170
  86.5720140  43.5259040  22.8449340  86.4547260  45.0064320  22.5514060
  89.7753630  44.5114500  12.4556310  89.5491210  43.7944940  13.0480950
  89.3849830  44.2626940  11.6178060  87.7035530  45.0260780  25.9353230
  88.0391770  45.6127470  26.6131150  86.7835870  44.8953490  26.1651020
  75.5569660  48.5381360  13.2300770  75.9167300  49.1370700  12.5758040
  75.4162000  49.0841250  14.0035800  75.2538930  32.8155960  26.7176640
  74.5397450  33.0152880  27.3229250  75.6733970  32.0395530  27.0891440
  89.3569880  42.4286440  14.1170470  89.0691580  42.8899130  14.9048350
  90.1522050  41.9684210  14.3854690  75.5411520  46.8036220  27.7043170
  75.6502640  45.8630960  27.5638560  74.8892080  47.0690970  27.0556900
  83.5324110  45.0752110  29.1041290  83.2120980  44.3561350  29.6486980
  82.8582470  45.7507180  29.1777350  81.5738280  45.9212560  14.0474440
  81.5648380  46.6542250  13.4318950  80.6536640  45.6744140  14.1401400
  77.1744920  41.1427450  14.7921200  76.5672870  41.8826350  14.8016500
  77.6494270  41.2326810  13.9659400  86.7477710  35.3078270  24.4678090
  87.1158530  34.4873480  24.7957660  85.8875910  35.3680160  24.8833740
  90.1139740  34.2635210  15.2765650  89.4852900  34.3680880  14.5623880
  89.6191660  34.4831990  16.0659530  84.5597880  45.9840800  12.7099630
  84.6609860  45.7804790  11.7801610  83.6599620  45.7299080  12.9147410
  82.0823770  36.5421160  16.6923530  81.3739920  37.0107500  17.1337140
  82.3668250  35.8843170  17.3268720  83.7079700  37.9617860  24.6916060
  84.2064950  38.4363680  25.3567910  83.8502650  37.0381380  24.8986090
  86.1139200  33.2671820  18.1319320  85.9906980  33.2857950  17.1828830
  87.0623760  33.3150760  18.2517720  83.2015990  48.5027120  17.4047300
  83.4557490  48.4648510  16.4826670  82.2528470  48.3760450  17.3975550
  80.2858790  34.8506240  14.0674240  81.1349320  35.2876390  14.0014430
  79.9190060  35.1626500  14.8946300  89.2068570  39.4219000  18.9805810
  88.2658710  39.4369230  19.1553500  89.5212640  38.6354960  19.4266110
  79.1850210  41.1038600  12.5409770  79.9513480  40.9919960  13.1035200
  79.2624900  40.4076570  11.8886540  77.8796970  38.5363670  13.2242660
  77.9600560  37.5891180  13.3360060  78.7716720  38.8670550  13.3303320
  78.6811680  48.6859060  20.3277200  79.4174160  48.1374520  20.5985770
  79.0652600  49.5515070  20.1883190  75.5657160  44.7532630  16.2018710
  74.6396940  44.9953770  16.1924120  76.0313590  45.5806890  16.0803460
  77.6869960  47.8705130  29.5162780  78.4882690  48.1917180  29.9298180
  77.1721780  47.5100710  30.2382690  81.7913990  47.8589370  12.1502770
  82.5842600  48.1478200  11.6984560  81.2718340  47.4281540  11.4715250
  86.5234590  43.9785000  29.4638190  85.9172750  44.0016600  28.7233940
  86.2188700  43.2468040  30.0005440  87.9534960  47.7065290  28.0747600
  88.9056710  47.6223310  28.0247840  87.8063180  48.3707000  28.7481390
  75.4067770  40.3578590  28.4598830  75.9106790  39.7785870  29.0315060
  74.6675190  40.6418820  28.9975200  82.3091390  43.0792780  12.0145120
  82.2042030  42.4645130  12.7406500  82.1415610  42.5558670  11.2308130
  82.4605710  41.7649580  27.9934350  81.6951380  42.3334580  27.9089020
  82.6421670  41.4725790  27.1002580  85.5494120  42.1412810  12.6187110
  85.0004220  42.5882110  13.2629850  86.1713380  41.6362060  13.1424780
  89.6029060  43.4954910  28.5509370  90.3438530  43.8330670  28.0476830
  88.8401740  43.6646970  27.9979140  77.4390850  38.5008180  29.3548900
  77.4796190  38.2022050  30.2634130  78.2936350  38.9015790  29.1956420
  81.2169240  41.1003730  14.5152410  81.6385660  40.9343600  15.3583800
  81.3420080  40.2903960  14.0207550  79.3796660  37.0800280  27.3223390
  78.8493120  36.5891230  26.6946730  80.0484730  37.5084480  26.7881320
  83.7296880  40.1241340  11.7629510  84.2502540  39.4090360  11.3970660
  84.3765280  40.7627210  12.0630020  88.2774720  41.5469740  27.0864580
  88.6915740  41.7014820  27.9355000  87.3425720  41.6724960  27.2490360
  88.7496890  38.8865900  29.0903730  89.3317660  38.1318220  29.0024210
  88.9258660  39.4173340  28.3135210  79.8668960  34.0462650  27.4020680
  79.7725830  33.4283400  26.6771550  79.2866350  34.7728940  27.1750590
  82.6330400  32.6035890  24.4348070  82.1847700  32.6260150  23.5893620
  81.9995600  32.2054910  25.0318370  83.0389950  41.4990220  25.0560510
  83.4578060  42.3422950  24.8836750  82.1198580  41.6362260  24.8267290
  85.3753850  39.2306400  26.4398350  85.4950060  38.6347540  27.1793190
  86.2347850  39.2676090  26.0199650  87.7141750  39.7843590  25.0160860
  87.1876970  40.3086210  24.4126000  88.0573090  40.4170980  25.6470590
  80.1128140  37.1736960  11.4610570  79.9117200  36.3104320  11.8223910
  79.9420190  37.0870320  10.5232170  80.8897370  47.8043230  26.1718240
  80.3518460  48.5289290  25.8526940  81.1431330  47.3273570  25.3815580
  82.1422620  35.7727750  27.6974170  82.7322310  35.4643600  28.3851990
  81.3242860  35.3007500  27.8534070  86.9616050  35.3893560  27.9307190
  86.2731570  34.7275100  27.8657180  87.6822070  34.9431830  28.3755650
  87.5916450  31.9845190  13.9897450  87.8718740  31.1413090  14.3456870
  86.8182180  32.2168300  14.5036200  78.9110940  34.2737580  11.4488450
  79.2136840  34.2805010  10.5407600  79.6505530  33.9235440  11.9456110
  83.7459580  49.0394440  26.4304890  83.6718280  49.9429580  26.7377260
  82.8438420  48.7206340  26.4026960  82.1295870  33.2172200  12.4344650
  81.7817870  32.5396190  11.8547100  82.3308640  32.7561710  13.2488040
  84.2944910  48.2052950  14.0531250  85.1895700  48.5437920  14.0750010
  84.3262540  47.4832360  13.4255530  77.9341070  43.5780000  12.2818250
  78.3715940  44.1209670  12.9375830  78.4188800  42.7526950  12.2914590
  75.1486870  46.3669030  19.7338510  75.4789880  45.4990090  19.5017150
  75.5777870  46.5727550  20.5643470  79.7448790  44.6978040  17.3940480
  79.4444330  44.5743010  18.2944390  79.6386280  43.8386630  16.9856210
  75.6377080  47.2339620  22.4720140  75.2008070  47.4140420  23.3044290
  76.2054760  47.9914240  22.3301860  75.4701510  39.7459850  18.8309020
  74.8150350  39.4771490  18.1868720  76.3079460  39.6364330  18.3811000
  89.9590900  43.4608600  24.8573610  89.1450740  43.8905760  25.1199400
  90.3665100  44.0727010  24.2442660  88.4191950  34.5401140  13.0527510
  88.8376830  34.3532120  12.2124170  88.1128010  33.6880190  13.3630440
  76.5077440  40.1312420  23.3712360  76.8750480  40.0439820  24.2508380
  75.9388260  39.3678970  23.2719220  76.0593440  37.0421510  27.2770780
  75.1649490  37.0088270  27.6164490  76.5990990  37.2408300  28.0422030
  89.7469370  33.8253230  29.1622530  90.6239550  33.8336630  29.5456530
  89.7590210  33.0884070  28.5514880  74.6839590  36.9558780  14.7734350
  73.7803670  37.2188980  14.5986010  75.1680210  37.2269950  13.9934310
  77.2266800  36.0124320  12.6828730  77.9358500  35.5907540  12.1976010
  76.5106740  36.0799550  12.0512080  76.8740960  32.0663650  11.7231380
  77.5969090  32.6072590  12.0412600  77.1465480  31.7927070  10.8472920
  76.5633150  31.3169840  21.6254000  77.2109340  30.7667220  21.1849160
  76.9834990  31.5712990  22.4469810  90.0166950  48.2127200  18.3841880
  90.6126020  47.8911770  17.7076300  90.2745100  47.7399020  19.1755150
  76.3165150  31.4725510  24.3679320  75.9679970  31.9289330  25.1337500
  75.9852850  30.5782640  24.4501750  77.9229520  44.6445110  28.5332510
  77.8799150  44.2738020  29.4146970  78.0540530  45.5822680  28.6734330
  81.6235550  46.2004700  24.1342230  81.3826910  46.4679260  23.2472750
  82.5638190  46.3710430  24.1893090  83.8289970  32.6637390  27.8898740
  83.7678860  33.2559220  28.6394150  84.7690350  32.5563350  27.7449000
  86.4664530  32.3207450  27.5291030  87.0804940  32.6386740  26.8672110
  87.0114090  31.8356040  28.1486890  76.9885790  31.0001710  27.6430090
  77.5368780  30.8189760  26.8796200  77.0541100  30.2095820  28.1786400
  77.7617550  47.5907360  25.6530290  77.1677870  47.4592060  26.3920330
  77.7541390  46.7545500  25.1872390  87.2072570  30.8839590  23.8560320
  86.3332410  31.2174700  23.6533250  87.0983320  30.4112770  24.6812190
  88.1144550  33.0910460  25.2402040  87.7857910  32.2762220  24.8603770
  89.0626850  33.0480270  25.1167730  90.5679160  48.8622500  22.2139610
  90.1082130  49.6138310  21.8397630  89.9391620  48.1428970  22.1554410
  77.3929780  44.9565740  24.6038330  76.6663840  44.3371030  24.5364280
  77.4538930  45.3506350  23.7336410  80.9974880  47.1710740  21.3887740
  81.5139900  46.5598100  20.8636000  81.6472260  47.6739520  21.8798750
  83.7370380  48.0619230  22.2156720  84.0248190  47.8073530  21.3389730
  84.2493600  47.5096590  22.8062290  84.9547390  31.8009430  22.7953230
  84.1719180  32.2754930  23.0749990  84.6610320  30.8964260  22.6866410
  89.5068460  32.5032530  20.8402320  89.9476550  32.4477630  19.9923920
  89.2376050  33.4190540  20.9112500  75.6759780  48.2740130  17.8135090
  75.5081820  47.6410810  18.5116980  74.8094290  48.4799530  17.4629280
  76.2987800  32.1056910  15.3166950  77.0567160  32.2185790  14.7430980
  75.8364970  32.9426110  15.2710380  82.8401610  34.2196180  18.3069260
  82.0276120  33.8453070  17.9665140  83.3443250  33.4641260  18.6090450
  87.3426590  30.8838630  19.5452330  87.9455960  31.4558840  20.0200850
  86.6019580  31.4478070  19.3226230  90.4861190  31.2860190  14.8192610
  90.6811820  32.1843640  15.0860040  89.6991060  31.0547270  15.3125560
  77.2822480  46.9673360  15.2585230  76.7570100  47.3481390  14.5547190
  77.2067060  47.5924130  15.9794940  78.6712950  32.6320960  13.8568920
  79.2005710  31.8450760  13.7276870  79.3041270  33.3112150  14.0904450
  80.8650790  32.3696100  16.9114310  80.2353530  31.6683410  17.0784440
  80.3255930  33.1300230  16.6947470  83.8042740  48.9835330  29.5824920
  84.7310050  48.7479600  29.6260880  83.7893170  49.8107330  29.1010950
  80.9906350  31.6480080  29.3466800  80.7090620  32.1513680  28.5827620
  81.3726050  30.8501830  28.9808930  79.8815450  48.9155740  14.1334480
  80.6134270  48.6315020  13.5858370  80.1409120  48.6769020  15.0233860
  79.0430240  45.0320470  14.1380810  78.4139120  45.5005570  14.6866640
  79.1578070  44.1869690  14.5727000  87.5921810  31.0633660  29.9247270
  87.4787260  31.3828270  30.8198790  88.4091550  31.4646170  29.6284550
  84.6298000  40.8605150   2.1691280  83.8540100  40.3805590   2.4589850
  85.2810930  40.1810800   1.9947440  78.6463830  41.1724960   3.0467040
  77.8148710  40.9173670   3.4463550  79.2544810  41.2435730   3.7824960
  78.6265090  45.2065050   3.2425060  78.9293130  44.3162790   3.0635280
  79.3708680  45.7635270   3.0147310  75.0188790  38.7332500   2.7149130
  75.5904900  37.9654700   2.7152770  75.0190330  39.0321260   1.8055740
  84.0706990  43.5362340   2.1761440  84.0015270  42.5952280   2.0150570
  84.8326850  43.6263750   2.7484010  76.2613660  34.1416860   4.5018060
  76.0816500  33.2442610   4.7820820  75.8593740  34.6888730   5.1765010
  76.8800330  36.6377360   3.1100400  77.5610440  36.9015730   3.7287800
  76.5648380  35.7978230   3.4438410  81.0724900  37.6844720   2.1972990
  81.5803120  38.1825690   2.8378010  81.6038140  36.9079920   2.0212350
  79.3561000  32.3243280   6.4636410  79.3579440  32.8415670   5.6582310
  78.5265310  31.8473460   6.4406340  80.6063850  41.9638460   4.6409910
  80.2733230  42.5907380   5.2830980  80.7830530  42.4900340   3.8611580
  89.1197760  35.7783540   2.1086250  88.4153330  36.0668430   2.6889360
  89.4809920  36.5883650   1.7485810  79.0376330  34.0353240   4.4706860
  79.3793140  34.8795290   4.1760730  78.0992140  34.1836980   4.5872200
  79.8182950  43.9319260   6.4559090  80.4356950  44.6070340   6.1743540
  78.9576070  44.3407240   6.3646590  88.2719280  47.2402800   3.0858910
  88.2846440  46.8365090   2.2181170  87.7194500  48.0150090   2.9820340
  87.6704720  42.1432640   4.4141520  88.0873510  41.9292750   3.5794980
  88.3944540  42.4005430   4.9850140  88.5808830  37.3289180   5.4512630
  88.1680010  38.1542890   5.7052620  87.8484780  36.7434220   5.2588990
  81.1823320  43.8016640   2.4770510  80.8851610  43.1962110   1.7978290
  82.1323140  43.8393950   2.3659870  79.4270240  36.8892290   4.0930340
  79.9784830  36.9987630   3.3183590  79.9413750  37.2629890   4.8085570
  89.2708930  47.3748510   6.1393610  88.7939490  48.1820700   5.9466220
  88.5870720  46.7226840   6.2919820  80.2741750  43.5398330   9.1278310
  79.3770280  43.7638300   9.3751710  80.2994620  43.6633270   8.1789710
  79.1012970  40.4111650   7.7035680  78.9620740  41.2834450   8.0723080
  78.2194330  40.0684460   7.5583620  80.8993320  46.3533350   9.9120830
  80.8708750  46.7576300   9.0449260  80.7358290  45.4243710   9.7492430
  75.0531620  42.1809200   3.6206590  75.1312040  42.3157970   2.6762310
  75.6673300  41.4725090   3.8134710  86.1158130  48.0301300   6.9379820
  86.6302800  47.9409310   7.7402250  85.2727210  48.3761000   7.2307730
  75.1091140  43.2223370   6.1601050  75.2722180  42.7528730   5.3420420
  75.5743590  42.7146930   6.8249890  84.1679720  35.2197650   6.7996940
  83.7059090  35.4280670   7.6116880  83.7657830  34.4057000   6.4967610
  89.1684230  36.4406600   7.9293600  88.3177820  36.1412350   8.2502670
  89.0086020  36.6848610   7.0177420  86.2633940  37.9408350  10.0292390
  86.5887350  37.1072100   9.6894620  87.0514270  38.4636870  10.1770720
  81.9185810  32.8976460   3.0551220  82.2158140  33.8039290   2.9743240
  82.4671370  32.4095240   2.4410790  82.1123340  38.3748280   9.5903140
  82.0166940  37.4343010   9.4403540  82.9555320  38.5963350   9.1951210
  77.2433880  34.7861950   7.7436920  76.8497270  35.6337160   7.9509700
  76.5552280  34.1488320   7.9345560  83.8178930  34.8696920  10.8133660
  83.1277250  34.6769120  11.4479750  84.5611230  35.1531560  11.3457960
  74.5450930  32.7090410   1.7767000  74.2563980  33.2793270   2.4891980
  75.2896690  32.2294860   2.1398230  86.0941900  38.7095360   3.6487580
  85.3623020  39.2182170   3.9977680  85.6966240  37.8925340   3.3476360
  86.5567810  34.1629040   3.0610520  86.5740550  34.6137690   3.9052370
  86.3083390  33.2634680   3.2743960  89.9838560  31.5761220   8.8996900
  90.3084330  30.8450880   9.4254880  90.0195070  31.2574860   7.9977890
  76.6830120  42.5974800   8.3196860  76.2984910  41.9568470   8.9179820
  76.9942310  43.3010920   8.8891590  82.8327260  39.4451340   3.8005480
  83.1997390  38.9709910   4.5466820  82.6432320  40.3192910   4.1413820
  80.6226630  38.4859980   6.1189690  80.3183700  39.3651960   6.3440050
  81.5773090  38.5459770   6.1547130  89.9096400  41.6886330   2.5082930
  90.6295520  42.1841620   2.1179040  89.7078220  41.0104220   1.8636800
  85.2915200  41.7595390   8.3951930  85.2252510  40.8391060   8.1409520
  84.6620340  41.8570830   9.1096570  76.6790360  39.3262720   7.2661050
  76.3205300  39.9916570   7.8534390  76.3844920  38.4946270   7.6373670
  79.8803480  39.7846960  10.1500600  79.5803620  39.9304140   9.2528420
  80.6514720  39.2252250  10.0573990  85.2231930  44.5815960   8.1455730
  85.2376470  43.6496920   7.9274640  84.5157030  44.6675720   8.7845500
  84.6565830  46.2233530   5.2396230  85.3008050  46.4292910   5.9169650
  85.0195270  45.4621930   4.7867080  85.9297910  44.2265880   3.9573680
  86.5720140  43.5259040   4.0705850  86.4547260  45.0064320   3.7770570
  87.7035530  45.0260780   7.1609740  88.0391770  45.6127470   7.8387660
  86.7835870  44.8953490   7.3907530  75.2538930  32.8155960   7.9433150
  74.5397450  33.0152880   8.5485760  75.6733970  32.0395530   8.3147950
  75.5411520  46.8036220   8.9299680  75.6502640  45.8630960   8.7895070
  74.8892080  47.0690970   8.2813410  83.5324110  45.0752110  10.3297800
  83.2120980  44.3561350  10.8743490  82.8582470  45.7507180  10.4033860
  86.7477710  35.3078270   5.6934600  87.1158530  34.4873480   6.0214170
  85.8875910  35.3680160   6.1090250  83.7079700  37.9617860   5.9172570
  84.2064950  38.4363680   6.5824420  83.8502650  37.0381380   6.1242600
  77.6869960  47.8705130  10.7419290  78.4882690  48.1917180  11.1554690
  77.1721780  47.5100710  11.4639200  86.5234590  43.9785000  10.6894700
  85.9172750  44.0016600   9.9490450  86.2188700  43.2468040  11.2261950
  87.9534960  47.7065290   9.3004110  88.9056710  47.6223310   9.2504350
  87.8063180  48.3707000   9.9737900  75.4067770  40.3578590   9.6855340
  75.9106790  39.7785870  10.2571570  74.6675190  40.6418820  10.2231710
  82.4605710  41.7649580   9.2190860  81.6951380  42.3334580   9.1345530
  82.6421670  41.4725790   8.3259090  89.6029060  43.4954910   9.7765880
  90.3438530  43.8330670   9.2733340  88.8401740  43.6646970   9.2235650
  77.4390850  38.5008180  10.5805410  77.4796190  38.2022050  11.4890640
  78.2936350  38.9015790  10.4212930  79.3796660  37.0800280   8.5479900
  78.8493120  36.5891230   7.9203240  80.0484730  37.5084480   8.0137830
  88.2774720  41.5469740   8.3121090  88.6915740  41.7014820   9.1611510
  87.3425720  41.6724960   8.4746870  88.7496890  38.8865900  10.3160240
  89.3317660  38.1318220  10.2280720  88.9258660  39.4173340   9.5391720
  79.8668960  34.0462650   8.6277190  79.7725830  33.4283400   7.9028060
  79.2866350  34.7728940   8.4007100  82.6330400  32.6035890   5.6604580
  82.1847700  32.6260150   4.8150130  81.9995600  32.2054910   6.2574880
  83.0389950  41.4990220   6.2817020  83.4578060  42.3422950   6.1093260
  82.1198580  41.6362260   6.0523800  85.3753850  39.2306400   7.6654860
  85.4950060  38.6347540   8.4049700  86.2347850  39.2676090   7.2456160
  87.7141750  39.7843590   6.2417370  87.1876970  40.3086210   5.6382510
  88.0573090  40.4170980   6.8727100  80.8897370  47.8043230   7.3974750
  80.3518460  48.5289290   7.0783450  81.1431330  47.3273570   6.6072090
  82.1422620  35.7727750   8.9230680  82.7322310  35.4643600   9.6108500
  81.3242860  35.3007500   9.0790580  86.9616050  35.3893560   9.1563700
  86.2731570  34.7275100   9.0913690  87.6822070  34.9431830   9.6012160
  83.7459580  49.0394440   7.6561400  83.6718280  49.9429580   7.9633770
  82.8438420  48.7206340   7.6283470  75.6377080  47.2339620   3.6976650
  75.2008070  47.4140420   4.5300800  76.2054760  47.9914240   3.5558370
  89.9590900  43.4608600   6.0830120  89.1450740  43.8905760   6.3455910
  90.3665100  44.0727010   5.4699170  76.5077440  40.1312420   4.5968870
  76.8750480  40.0439820   5.4764890  75.9388260  39.3678970   4.4975730
  76.0593440  37.0421510   8.5027290  75.1649490  37.0088270   8.8421000
  76.5990990  37.2408300   9.2678540  89.7469370  33.8253230  10.3879040
  90.6239550  33.8336630  10.7713040  89.7590210  33.0884070   9.7771390
  76.5633150  31.3169840   2.8510510  77.2109340  30.7667220   2.4105670
  76.9834990  31.5712990   3.6726320  76.3165150  31.4725510   5.5935830
  75.9679970  31.9289330   6.3594010  75.9852850  30.5782640   5.6758260
  77.9229520  44.6445110   9.7589020  77.8799150  44.2738020  10.6403480
  78.0540530  45.5822680   9.8990840  81.6235550  46.2004700   5.3598740
  81.3826910  46.4679260   4.4729260  82.5638190  46.3710430   5.4149600
  83.8289970  32.6637390   9.1155250  83.7678860  33.2559220   9.8650660
  84.7690350  32.5563350   8.9705510  86.4664530  32.3207450   8.7547540
  87.0804940  32.6386740   8.0928620  87.0114090  31.8356040   9.3743400
  76.9885790  31.0001710   8.8686600  77.5368780  30.8189760   8.1052710
  77.0541100  30.2095820   9.4042910  77.7617550  47.5907360   6.8786800
  77.1677870  47.4592060   7.6176840  77.7541390  46.7545500   6.4128900
  87.2072570  30.8839590   5.0816830  86.3332410  31.2174700   4.8789760
  87.0983320  30.4112770   5.9068700  88.1144550  33.0910460   6.4658550
  87.7857910  32.2762220   6.0860280  89.0626850  33.0480270   6.3424240
  90.5679160  48.8622500   3.4396120  90.1082130  49.6138310   3.0654140
  89.9391620  48.1428970   3.3810920  77.3929780  44.9565740   5.8294840
  76.6663840  44.3371030   5.7620790  77.4538930  45.3506350   4.9592920
  80.9974880  47.1710740   2.6144250  81.5139900  46.5598100   2.0892510
  81.6472260  47.6739520   3.1055260  83.7370380  48.0619230   3.4413230
  84.0248190  47.8073530   2.5646240  84.2493600  47.5096590   4.0318800
  84.9547390  31.8009430   4.0209740  84.1719180  32.2754930   4.3006500
  84.6610320  30.8964260   3.9122920  83.8042740  48.9835330  10.8081430
  84.7310050  48.7479600  10.8517390  83.7893170  49.8107330  10.3267460
  80.9906350  31.6480080  10.5723310  80.7090620  32.1513680   9.8084130
  81.3726050  30.8501830  10.2065440  87.5921810  31.0633660  11.1503780
  87.4787260  31.3828270  12.0455300  88.4091550  31.4646170  10.8541060
  86.4979960  20.3082640  94.1599460  86.4174010  19.3937250  93.8891170
  86.0844380  20.8049710  93.4539170  88.6505430  26.4921850  94.8207860
  88.1886960  25.7209090  95.1495030  89.4630980  26.5187920  95.3260310
  77.0555780  17.3583360  90.7026880  76.1672480  17.6999330  90.6006760
  77.3396970  17.1583680  89.8107710  84.8768740  28.7779860  94.4411850
  84.2580180  29.2337360  93.8706290  85.7320520  28.9331320  94.0401550
  79.2317170  15.9414860  91.7365260  79.3383920  16.8418590  92.0434020
  78.3209530  15.8932830  91.4459910  88.8836280  15.0639670  93.2076160
  89.7045900  14.5736240  93.2501640  88.9170360  15.6537330  93.9608000
  85.7432090  23.6619100  91.8343760  85.1249360  24.1268550  91.2706480
  86.2555340  24.3546580  92.2513270  75.1115290  24.3475630  89.2083390
  74.7343270  24.8362730  88.4768290  75.3688360  25.0200910  89.8389920
  82.7204220  12.7492020  94.6668900  83.0279200  12.1938910  93.9504400
  81.7904920  12.8836480  94.4841890  89.5664700  25.1875530  92.0466530
  89.4561030  24.2449860  92.1715950  89.5632950  25.5491170  92.9329290
  85.1084980  20.8140850  91.4029020  84.1814260  20.7478230  91.6317490
  85.2609800  21.7520980  91.2884260  85.0954060  17.0857850  88.3996180
  84.1557730  17.2471810  88.4848640  85.4137320  17.8043530  87.8532170
  89.1382270  22.3761150  91.9064270  88.5194690  22.0380700  91.2590570
  89.1206720  21.7320910  92.6143460  80.7141620  21.3405590  94.1848750
  80.3098620  20.6282840  93.6894650  80.8004740  20.9958830  95.0736790
  87.3146970  21.6147960  88.9137020  87.7540250  20.7770390  88.7674840
  88.0275390  22.2477360  89.0001160  85.4242350  26.5544030  92.8818260
  85.8638260  27.2968360  92.4673650  85.3629240  26.7970600  93.8057220
  77.4146250  20.2350570  91.6855400  77.2943850  20.9612660  91.0736670
  77.1047140  19.4653480  91.2083310  76.2979250  25.1065900  93.9030220
  75.8907330  25.2480490  93.0483820  77.1892260  24.8226060  93.7001430
  88.0912530  29.5413150  90.2381270  87.9313670  29.2516090  91.1363100
  87.9259240  28.7653280  89.7026500  80.5700910  29.3211680  92.0152890
  80.3943390  28.4047220  91.8020690  79.7156650  29.6798970  92.2550690
  87.7938660  27.0500710  88.7979270  87.1003820  27.0478000  88.1381550
  88.5361520  26.6260030  88.3673440  87.3588590  28.6763420  92.8727760
  87.8145540  27.8952800  93.1866380  87.6981110  29.3870240  93.4168940
  79.8809910  13.5785640  95.0679070  79.4378060  14.3595180  94.7363590
  80.4394900  13.9015530  95.7750010  82.9968730  13.1996340  89.9484900
  82.3722910  13.1956210  90.6738210  82.9098850  12.3327300  89.5520870
  79.6724130  18.7019210  92.7960320  79.4465050  18.4856380  93.7006940
  78.8916660  19.1347670  92.4506290  86.9021890  18.7082580  91.3950970
  86.3030780  19.4318380  91.2114590  87.4501500  18.6459360  90.6127420
  85.5086760  17.3446120  93.4254250  85.9016330  17.6618320  92.6122940
  85.8703610  16.4658000  93.5398770  74.7321160  17.8767040  86.8587170
  74.6495830  18.8197800  87.0002160  74.3804220  17.7341950  85.9799520
  82.5319290  16.6106070  95.9257520  82.5355350  16.1696020  95.0762060
  83.4270410  16.9323400  96.0329340  78.3821670  16.4932560  94.8851730
  78.0421720  16.9707790  95.6418780  77.6198990  16.0397680  94.5252830
  82.5939440  17.6118150  88.9164280  82.7152260  17.5704630  89.8650100
  82.2087950  18.4742300  88.7611010  81.6060940  19.9219290  88.3147580
  81.0377840  19.4737540  87.6883490  82.3149940  20.2812070  87.7812730
  75.6967750  15.4151540  93.8016400  75.4114670  15.0507210  94.6395020
  75.6346610  14.6832000  93.1879540  79.1508420  23.9177480  90.5873990
  78.3770680  23.3775100  90.4272710  79.8803050  23.3984090  90.2491750
  85.3706340  14.3080800  90.5229770  84.5570950  13.8093970  90.4475080
  85.1768290  15.1479050  90.1066120  88.0854730  18.6800450  88.8191930
  88.9734350  18.9917680  88.6443270  88.0559820  17.8072700  88.4272510
  79.1945820  23.5857860  94.2252800  79.7124490  22.7826120  94.1709690
  78.7429840  23.5237000  95.0669630  84.0815320  24.8524140  89.4980100
  84.4231020  25.5966370  89.0023420  83.2528030  25.1655260  89.8604930
  86.9642730  24.1739980  94.8625610  87.3166550  23.5768110  94.2026980
  86.0805060  23.8484210  95.0333860  83.0506010  24.9337670  92.2696020
  83.7377140  25.4806880  92.6503610  82.2638430  25.4778400  92.3045630
  75.1898410  20.5510490  87.7613100  76.0593260  20.8335290  88.0449020
  74.6988730  21.3646360  87.6461910  82.3533220  21.9383700  91.8821380
  82.8096000  22.7488950  92.1081570  82.0021430  21.6206840  92.7139870
  78.2545000  12.2821350  92.3543900  78.1259630  12.2739250  93.3028820
  77.4307020  12.6204440  92.0034910  89.7753630  25.7371010  87.5530270
  89.5491210  25.0201450  88.1454910  89.3849830  25.4883450  86.7152020
  75.5569660  29.7637870  88.3274730  75.9167300  30.3627210  87.6732000
  75.4162000  30.3097760  89.1009760  89.3569880  23.6542950  89.2144430
  89.0691580  24.1155640  90.0022310  90.1522050  23.1940720  89.4828650
  81.5738280  27.1469070  89.1448400  81.5648380  27.8798760  88.5292910
  80.6536640  26.9000650  89.2375360  77.1744920  22.3683960  89.8895160
  76.5672870  23.1082860  89.8990460  77.6494270  22.4583320  89.0633360
  90.1139740  15.4891720  90.3739610  89.4852900  15.5937390  89.6597840
  89.6191660  15.7088500  91.1633490  84.5597880  27.2097310  87.8073590
  84.6609860  27.0061300  86.8775570  83.6599620  26.9555590  88.0121370
  82.0823770  17.7677670  91.7897490  81.3739920  18.2364010  92.2311100
  82.3668250  17.1099680  92.4242680  86.1139200  14.4928330  93.2293280
  85.9906980  14.5114460  92.2802790  87.0623760  14.5407270  93.3491680
  83.2015990  29.7283630  92.5021260  83.4557490  29.6905020  91.5800630
  82.2528470  29.6016960  92.4949510  80.2858790  16.0762750  89.1648200
  81.1349320  16.5132900  89.0988390  79.9190060  16.3883010  89.9920260
  89.2068570  20.6475510  94.0779770  88.2658710  20.6625740  94.2527460
  89.5212640  19.8611470  94.5240070  79.1850210  22.3295110  87.6383730
  79.9513480  22.2176470  88.2009160  79.2624900  21.6333080  86.9860500
  77.8796970  19.7620180  88.3216620  77.9600560  18.8147690  88.4334020
  78.7716720  20.0927060  88.4277280  78.6811680  29.9115570  95.4251160
  79.4174160  29.3631030  95.6959730  79.0652600  30.7771580  95.2857150
  75.5657160  25.9789140  91.2992670  74.6396940  26.2210280  91.2898080
  76.0313590  26.8063400  91.1777420  81.7913990  29.0845880  87.2476730
  82.5842600  29.3734710  86.7958520  81.2718340  28.6538050  86.5689210
  82.3091390  24.3049290  87.1119080  82.2042030  23.6901640  87.8380460
  82.1415610  23.7815180  86.3282090  85.5494120  23.3669320  87.7161070
  85.0004220  23.8138620  88.3603810  86.1713380  22.8618570  88.2398740
  81.2169240  22.3260240  89.6126370  81.6385660  22.1600110  90.4557760
  81.3420080  21.5160470  89.1181510  83.7296880  21.3497850  86.8603470
  84.2502540  20.6346870  86.4944620  84.3765280  21.9883720  87.1603980
  80.1128140  18.3993470  86.5584530  79.9117200  17.5360830  86.9197870
  79.9420190  18.3126830  85.6206130  87.5916450  13.2101700  89.0871410
  87.8718740  12.3669600  89.4430830  86.8182180  13.4424810  89.6010160
  78.9110940  15.4994090  86.5462410  79.2136840  15.5061520  85.6381560
  79.6505530  15.1491950  87.0430070  82.1295870  14.4428710  87.5318610
  81.7817870  13.7652700  86.9521060  82.3308640  13.9818220  88.3462000
  84.2944910  29.4309460  89.1505210  85.1895700  29.7694430  89.1723970
  84.3262540  28.7088870  88.5229490  77.9341070  24.8036510  87.3792210
  78.3715940  25.3466180  88.0349790  78.4188800  23.9783460  87.3888550
  75.1486870  27.5925540  94.8312470  75.4789880  26.7246600  94.5991110
  75.5777870  27.7984060  95.6617430  79.7448790  25.9234550  92.4914440
  79.4444330  25.7999520  93.3918350  79.6386280  25.0643140  92.0830170
  75.4701510  20.9716360  93.9282980  74.8150350  20.7028000  93.2842680
  76.3079460  20.8620840  93.4784960  88.4191950  15.7657650  88.1501470
  88.8376830  15.5788630  87.3098130  88.1128010  14.9136700  88.4604400
  74.6839590  18.1815290  89.8708310  73.7803670  18.4445490  89.6959970
  75.1680210  18.4526460  89.0908270  77.2266800  17.2380830  87.7802690
  77.9358500  16.8164050  87.2949970  76.5106740  17.3056060  87.1486040
  76.8740960  13.2920160  86.8205340  77.5969090  13.8329100  87.1386560
  77.1465480  13.0183580  85.9446880  90.0166950  29.4383710  93.4815840
  90.6126020  29.1168280  92.8050260  90.2745100  28.9655530  94.2729110
  89.5068460  13.7289040  95.9376280  89.9476550  13.6734140  95.0897880
  89.2376050  14.6447050  96.0086460  75.6759780  29.4996640  92.9109050
  75.5081820  28.8667320  93.6090940  74.8094290  29.7056040  92.5603240
  76.2987800  13.3313420  90.4140910  77.0567160  13.4442300  89.8404940
  75.8364970  14.1682620  90.3684340  82.8401610  15.4452690  93.4043220
  82.0276120  15.0709580  93.0639100  83.3443250  14.6897770  93.7064410
  87.3426590  12.1095140  94.6426290  87.9455960  12.6815350  95.1174810
  86.6019580  12.6734580  94.4200190  90.4861190  12.5116700  89.9166570
  90.6811820  13.4100150  90.1834000  89.6991060  12.2803780  90.4099520
  77.2822480  28.1929870  90.3559190  76.7570100  28.5737900  89.6521150
  77.2067060  28.8180640  91.0768900  78.6712950  13.8577470  88.9542880
  79.2005710  13.0707270  88.8250830  79.3041270  14.5368660  89.1878410
  80.8650790  13.5952610  92.0088270  80.2353530  12.8939920  92.1758400
  80.3255930  14.3556740  91.7921430  79.8815450  30.1412250  89.2308440
  80.6134270  29.8571530  88.6832330  80.1409120  29.9025530  90.1207820
  79.0430240  26.2576980  89.2354770  78.4139120  26.7262080  89.7840600
  79.1578070  25.4126200  89.6700960  86.4979960  20.3082640  75.3855970
  86.4174010  19.3937250  75.1147680  86.0844380  20.8049710  74.6795680
  84.6298000  22.0861660  77.2665240  83.8540100  21.6062100  77.5563810
  85.2810930  21.4067310  77.0921400  78.6463830  22.3981470  78.1441000
  77.8148710  22.1430180  78.5437510  79.2544810  22.4692240  78.8798920
  88.6505430  26.4921850  76.0464370  88.1886960  25.7209090  76.3751540
  89.4630980  26.5187920  76.5516820  78.6265090  26.4321560  78.3399020
  78.9293130  25.5419300  78.1609240  79.3708680  26.9891780  78.1121270
  77.0555780  17.3583360  71.9283390  76.1672480  17.6999330  71.8263270
  77.3396970  17.1583680  71.0364220  75.0188790  19.9589010  77.8123090
  75.5904900  19.1911210  77.8126730  75.0190330  20.2577770  76.9029700
  84.8768740  28.7779860  75.6668360  84.2580180  29.2337360  75.0962800
  85.7320520  28.9331320  75.2658060  84.0706990  24.7618850  77.2735400
  84.0015270  23.8208790  77.1124530  84.8326850  24.8520260  77.8457970
  76.2613660  15.3673370  79.5992020  76.0816500  14.4699120  79.8794780
  75.8593740  15.9145240  80.2738970  85.1012160  17.5689230  77.5004330
  85.4776980  16.6961110  77.3878000  85.0031670  17.9047930  76.6094770
  79.2317170  15.9414860  72.9621770  79.3383920  16.8418590  73.2690530
  78.3209530  15.8932830  72.6716420  88.8836280  15.0639670  74.4332670
  89.7045900  14.5736240  74.4758150  88.9170360  15.6537330  75.1864510
  76.8800330  17.8633870  78.2074360  77.5610440  18.1272240  78.8261760
  76.5648380  17.0234740  78.5412370  81.0724900  18.9101230  77.2946950
  81.5803120  19.4082200  77.9351970  81.6038140  18.1336430  77.1186310
  79.3561000  13.5499790  81.5610370  79.3579440  14.0672180  80.7556270
  78.5265310  13.0729970  81.5380300  85.7432090  23.6619100  73.0600270
  85.1249360  24.1268550  72.4962990  86.2555340  24.3546580  73.4769780
  80.6063850  23.1894970  79.7383870  80.2733230  23.8163890  80.3804940
  80.7830530  23.7156850  78.9585540  89.1197760  17.0040050  77.2060210
  88.4153330  17.2924940  77.7863320  89.4809920  17.8140160  76.8459770
  79.0376330  15.2609750  79.5680820  79.3793140  16.1051800  79.2734690
  78.0992140  15.4093490  79.6846160  79.8182950  25.1575770  81.5533050
  80.4356950  25.8326850  81.2717500  78.9576070  25.5663750  81.4620550
  75.1115290  24.3475630  70.4339900  74.7343270  24.8362730  69.7024800
  75.3688360  25.0200910  71.0646430  82.7204220  12.7492020  75.8925410
  83.0279200  12.1938910  75.1760910  81.7904920  12.8836480  75.7098400
  88.2719280  28.4659310  78.1832870  88.2846440  28.0621600  77.3155130
  87.7194500  29.2406600  78.0794300  89.5664700  25.1875530  73.2723040
  89.4561030  24.2449860  73.3972460  89.5632950  25.5491170  74.1585800
  87.6704720  23.3689150  79.5115480  88.0873510  23.1549260  78.6768940
  88.3944540  23.6261940  80.0824100  85.1084980  20.8140850  72.6285530
  84.1814260  20.7478230  72.8574000  85.2609800  21.7520980  72.5140770
  85.0954060  17.0857850  69.6252690  84.1557730  17.2471810  69.7105150
  85.4137320  17.8043530  69.0788680  89.1382270  22.3761150  73.1320780
  88.5194690  22.0380700  72.4847080  89.1206720  21.7320910  73.8399970
  88.5808830  18.5545690  80.5486590  88.1680010  19.3799400  80.8026580
  87.8484780  17.9690730  80.3562950  80.7141620  21.3405590  75.4105260
  80.3098620  20.6282840  74.9151160  80.8004740  20.9958830  76.2993300
  81.1823320  25.0273150  77.5744470  80.8851610  24.4218620  76.8952250
  82.1323140  25.0650460  77.4633830  79.4270240  18.1148800  79.1904300
  79.9784830  18.2244140  78.4157550  79.9413750  18.4886400  79.9059530
  89.2708930  28.6005020  81.2367570  88.7939490  29.4077210  81.0440180
  88.5870720  27.9483350  81.3893780  80.2741750  24.7654840  84.2252270
  79.3770280  24.9894810  84.4725670  80.2994620  24.8889780  83.2763670
  87.3146970  21.6147960  70.1393530  87.7540250  20.7770390  69.9931350
  88.0275390  22.2477360  70.2257670  79.1012970  21.6368160  82.8009640
  78.9620740  22.5090960  83.1697040  78.2194330  21.2940970  82.6557580
  85.4242350  26.5544030  74.1074770  85.8638260  27.2968360  73.6930160
  85.3629240  26.7970600  75.0313730  80.8993320  27.5789860  85.0094790
  80.8708750  27.9832810  84.1423220  80.7358290  26.6500220  84.8466390
  77.4146250  20.2350570  72.9111910  77.2943850  20.9612660  72.2993180
  77.1047140  19.4653480  72.4339820  75.0531620  23.4065710  78.7180550
  75.1312040  23.5414480  77.7736270  75.6673300  22.6981600  78.9108670
  76.2979250  25.1065900  75.1286730  75.8907330  25.2480490  74.2740330
  77.1892260  24.8226060  74.9257940  86.1158130  29.2557810  82.0353780
  86.6302800  29.1665820  82.8376210  85.2727210  29.6017510  82.3281690
  88.0912530  29.5413150  71.4637780  87.9313670  29.2516090  72.3619610
  87.9259240  28.7653280  70.9283010  80.5700910  29.3211680  73.2409400
  80.3943390  28.4047220  73.0277200  79.7156650  29.6798970  73.4807200
  87.7938660  27.0500710  70.0235780  87.1003820  27.0478000  69.3638060
  88.5361520  26.6260030  69.5929950  87.3588590  28.6763420  74.0984270
  87.8145540  27.8952800  74.4122890  87.6981110  29.3870240  74.6425450
  75.1091140  24.4479880  81.2575010  75.2722180  23.9785240  80.4394380
  75.5743590  23.9403440  81.9223850  79.8809910  13.5785640  76.2935580
  79.4378060  14.3595180  75.9620100  80.4394900  13.9015530  77.0006520
  84.1679720  16.4454160  81.8970900  83.7059090  16.6537180  82.7090840
  83.7657830  15.6313510  81.5941570  89.1684230  17.6663110  83.0267560
  88.3177820  17.3668860  83.3476630  89.0086020  17.9105120  82.1151380
  86.2633940  19.1664860  85.1266350  86.5887350  18.3328610  84.7868580
  87.0514270  19.6893380  85.2744680  82.9968730  13.1996340  71.1741410
  82.3722910  13.1956210  71.8994720  82.9098850  12.3327300  70.7777380
  81.9185810  14.1232970  78.1525180  82.2158140  15.0295800  78.0717200
  82.4671370  13.6351750  77.5384750  79.6724130  18.7019210  74.0216830
  79.4465050  18.4856380  74.9263450  78.8916660  19.1347670  73.6762800
  86.9021890  18.7082580  72.6207480  86.3030780  19.4318380  72.4371100
  87.4501500  18.6459360  71.8383930  82.1123340  19.6004790  84.6877100
  82.0166940  18.6599520  84.5377500  82.9555320  19.8219860  84.2925170
  85.5086760  17.3446120  74.6510760  85.9016330  17.6618320  73.8379450
  85.8703610  16.4658000  74.7655280  77.2433880  16.0118460  82.8410880
  76.8497270  16.8593670  83.0483660  76.5552280  15.3744830  83.0319520
  83.8178930  16.0953430  85.9107620  83.1277250  15.9025630  86.5453710
  84.5611230  16.3788070  86.4431920  74.5450930  13.9346920  76.8740960
  74.2563980  14.5049780  77.5865940  75.2896690  13.4551370  77.2372190
  74.7321160  17.8767040  68.0843680  74.6495830  18.8197800  68.2258670
  74.3804220  17.7341950  67.2056030  86.0941900  19.9351870  78.7461540
  85.3623020  20.4438680  79.0951640  85.6966240  19.1181850  78.4450320
  82.5319290  16.6106070  77.1514030  82.5355350  16.1696020  76.3018570
  83.4270410  16.9323400  77.2585850  78.3821670  16.4932560  76.1108240
  78.0421720  16.9707790  76.8675290  77.6198990  16.0397680  75.7509340
  82.5939440  17.6118150  70.1420790  82.7152260  17.5704630  71.0906610
  82.2087950  18.4742300  69.9867520  86.5567810  15.3885550  78.1584480
  86.5740550  15.8394200  79.0026330  86.3083390  14.4891190  78.3717920
  81.6060940  19.9219290  69.5404090  81.0377840  19.4737540  68.9140000
  82.3149940  20.2812070  69.0069240  89.9838560  12.8017730  83.9970860
  90.3084330  12.0707390  84.5228840  90.0195070  12.4831370  83.0951850
  76.6830120  23.8231310  83.4170820  76.2984910  23.1824980  84.0153780
  76.9942310  24.5267430  83.9865550  82.8327260  20.6707850  78.8979440
  83.1997390  20.1966420  79.6440780  82.6432320  21.5449420  79.2387780
  75.6967750  15.4151540  75.0272910  75.4114670  15.0507210  75.8651530
  75.6346610  14.6832000  74.4136050  80.6226630  19.7116490  81.2163650
  80.3183700  20.5908470  81.4414010  81.5773090  19.7716280  81.2521090
  79.1508420  23.9177480  71.8130500  78.3770680  23.3775100  71.6529220
  79.8803050  23.3984090  71.4748260  89.9096400  22.9142840  77.6056890
  90.6295520  23.4098130  77.2153000  89.7078220  22.2360730  76.9610760
  85.3706340  14.3080800  71.7486280  84.5570950  13.8093970  71.6731590
  85.1768290  15.1479050  71.3322630  85.2915200  22.9851900  83.4925890
  85.2252510  22.0647570  83.2383480  84.6620340  23.0827340  84.2070530
  88.0854730  18.6800450  70.0448440  88.9734350  18.9917680  69.8699780
  88.0559820  17.8072700  69.6529020  79.1945820  23.5857860  75.4509310
  79.7124490  22.7826120  75.3966200  78.7429840  23.5237000  76.2926140
  84.0815320  24.8524140  70.7236610  84.4231020  25.5966370  70.2279930
  83.2528030  25.1655260  71.0861440  76.6790360  20.5519230  82.3635010
  76.3205300  21.2173080  82.9508350  76.3844920  19.7202780  82.7347630
  79.8803480  21.0103470  85.2474560  79.5803620  21.1560650  84.3502380
  80.6514720  20.4508760  85.1547950  85.2231930  25.8072470  83.2429690
  85.2376470  24.8753430  83.0248600  84.5157030  25.8932230  83.8819460
  86.9642730  24.1739980  76.0882120  87.3166550  23.5768110  75.4283490
  86.0805060  23.8484210  76.2590370  83.0506010  24.9337670  73.4952530
  83.7377140  25.4806880  73.8760120  82.2638430  25.4778400  73.5302140
  75.1898410  20.5510490  68.9869610  76.0593260  20.8335290  69.2705530
  74.6988730  21.3646360  68.8718420  82.3533220  21.9383700  73.1077890
  82.8096000  22.7488950  73.3338080  82.0021430  21.6206840  73.9396380
  84.6565830  27.4490040  80.3370190  85.3008050  27.6549420  81.0143610
  85.0195270  26.6878440  79.8841040  78.2545000  12.2821350  73.5800410
  78.1259630  12.2739250  74.5285330  77.4307020  12.6204440  73.2291420
  85.9297910  25.4522390  79.0547640  86.5720140  24.7515550  79.1679810
  86.4547260  26.2320830  78.8744530  89.7753630  25.7371010  68.7786780
  89.5491210  25.0201450  69.3711420  89.3849830  25.4883450  67.9408530
  87.7035530  26.2517290  82.2583700  88.0391770  26.8383980  82.9361620
  86.7835870  26.1210000  82.4881490  75.5569660  29.7637870  69.5531240
  75.9167300  30.3627210  68.8988510  75.4162000  30.3097760  70.3266270
  75.2538930  14.0412470  83.0407110  74.5397450  14.2409390  83.6459720
  75.6733970  13.2652040  83.4121910  89.3569880  23.6542950  70.4400940
  89.0691580  24.1155640  71.2278820  90.1522050  23.1940720  70.7085160
  75.5411520  28.0292730  84.0273640  75.6502640  27.0887470  83.8869030
  74.8892080  28.2947480  83.3787370  83.5324110  26.3008620  85.4271760
  83.2120980  25.5817860  85.9717450  82.8582470  26.9763690  85.5007820
  81.5738280  27.1469070  70.3704910  81.5648380  27.8798760  69.7549420
  80.6536640  26.9000650  70.4631870  77.1744920  22.3683960  71.1151670
  76.5672870  23.1082860  71.1246970  77.6494270  22.4583320  70.2889870
  86.7477710  16.5334780  80.7908560  87.1158530  15.7129990  81.1188130
  85.8875910  16.5936670  81.2064210  90.1139740  15.4891720  71.5996120
  89.4852900  15.5937390  70.8854350  89.6191660  15.7088500  72.3890000
  84.5597880  27.2097310  69.0330100  84.6609860  27.0061300  68.1032080
  83.6599620  26.9555590  69.2377880  82.0823770  17.7677670  73.0154000
  81.3739920  18.2364010  73.4567610  82.3668250  17.1099680  73.6499190
  83.7079700  19.1874370  81.0146530  84.2064950  19.6620190  81.6798380
  83.8502650  18.2637890  81.2216560  86.1139200  14.4928330  74.4549790
  85.9906980  14.5114460  73.5059300  87.0623760  14.5407270  74.5748190
  83.2015990  29.7283630  73.7277770  83.4557490  29.6905020  72.8057140
  82.2528470  29.6016960  73.7206020  80.2858790  16.0762750  70.3904710
  81.1349320  16.5132900  70.3244900  79.9190060  16.3883010  71.2176770
  89.2068570  20.6475510  75.3036280  88.2658710  20.6625740  75.4783970
  89.5212640  19.8611470  75.7496580  79.1850210  22.3295110  68.8640240
  79.9513480  22.2176470  69.4265670  79.2624900  21.6333080  68.2117010
  77.8796970  19.7620180  69.5473130  77.9600560  18.8147690  69.6590530
  78.7716720  20.0927060  69.6533790  78.6811680  29.9115570  76.6507670
  79.4174160  29.3631030  76.9216240  79.0652600  30.7771580  76.5113660
  75.5657160  25.9789140  72.5249180  74.6396940  26.2210280  72.5154590
  76.0313590  26.8063400  72.4033930  77.6869960  29.0961640  85.8393250
  78.4882690  29.4173690  86.2528650  77.1721780  28.7357220  86.5613160
  81.7913990  29.0845880  68.4733240  82.5842600  29.3734710  68.0215030
  81.2718340  28.6538050  67.7945720  86.5234590  25.2041510  85.7868660
  85.9172750  25.2273110  85.0464410  86.2188700  24.4724550  86.3235910
  87.9534960  28.9321800  84.3978070  88.9056710  28.8479820  84.3478310
  87.8063180  29.5963510  85.0711860  75.4067770  21.5835100  84.7829300
  75.9106790  21.0042380  85.3545530  74.6675190  21.8675330  85.3205670
  82.3091390  24.3049290  68.3375590  82.2042030  23.6901640  69.0636970
  82.1415610  23.7815180  67.5538600  82.4605710  22.9906090  84.3164820
  81.6951380  23.5591090  84.2319490  82.6421670  22.6982300  83.4233050
  85.5494120  23.3669320  68.9417580  85.0004220  23.8138620  69.5860320
  86.1713380  22.8618570  69.4655250  89.6029060  24.7211420  84.8739840
  90.3438530  25.0587180  84.3707300  88.8401740  24.8903480  84.3209610
  77.4390850  19.7264690  85.6779370  77.4796190  19.4278560  86.5864600
  78.2936350  20.1272300  85.5186890  81.2169240  22.3260240  70.8382880
  81.6385660  22.1600110  71.6814270  81.3420080  21.5160470  70.3438020
  79.3796660  18.3056790  83.6453860  78.8493120  17.8147740  83.0177200
  80.0484730  18.7340990  83.1111790  83.7296880  21.3497850  68.0859980
  84.2502540  20.6346870  67.7201130  84.3765280  21.9883720  68.3860490
  88.2774720  22.7726250  83.4095050  88.6915740  22.9271330  84.2585470
  87.3425720  22.8981470  83.5720830  88.7496890  20.1122410  85.4134200
  89.3317660  19.3574730  85.3254680  88.9258660  20.6429850  84.6365680
  79.8668960  15.2719160  83.7251150  79.7725830  14.6539910  83.0002020
  79.2866350  15.9985450  83.4981060  82.6330400  13.8292400  80.7578540
  82.1847700  13.8516660  79.9124090  81.9995600  13.4311420  81.3548840
  83.0389950  22.7246730  81.3790980  83.4578060  23.5679460  81.2067220
  82.1198580  22.8618770  81.1497760  85.3753850  20.4562910  82.7628820
  85.4950060  19.8604050  83.5023660  86.2347850  20.4932600  82.3430120
  87.7141750  21.0100100  81.3391330  87.1876970  21.5342720  80.7356470
  88.0573090  21.6427490  81.9701060  80.1128140  18.3993470  67.7841040
  79.9117200  17.5360830  68.1454380  79.9420190  18.3126830  66.8462640
  80.8897370  29.0299740  82.4948710  80.3518460  29.7545800  82.1757410
  81.1431330  28.5530080  81.7046050  82.1422620  16.9984260  84.0204640
  82.7322310  16.6900110  84.7082460  81.3242860  16.5264010  84.1764540
  86.9616050  16.6150070  84.2537660  86.2731570  15.9531610  84.1887650
  87.6822070  16.1688340  84.6986120  87.5916450  13.2101700  70.3127920
  87.8718740  12.3669600  70.6687340  86.8182180  13.4424810  70.8266670
  78.9110940  15.4994090  67.7718920  79.2136840  15.5061520  66.8638070
  79.6505530  15.1491950  68.2686580  83.7459580  30.2650950  82.7535360
  83.6718280  31.1686090  83.0607730  82.8438420  29.9462850  82.7257430
  82.1295870  14.4428710  68.7575120  81.7817870  13.7652700  68.1777570
  82.3308640  13.9818220  69.5718510  84.2944910  29.4309460  70.3761720
  85.1895700  29.7694430  70.3980480  84.3262540  28.7088870  69.7486000
  77.9341070  24.8036510  68.6048720  78.3715940  25.3466180  69.2606300
  78.4188800  23.9783460  68.6145060  75.1486870  27.5925540  76.0568980
  75.4789880  26.7246600  75.8247620  75.5777870  27.7984060  76.8873940
  79.7448790  25.9234550  73.7170950  79.4444330  25.7999520  74.6174860
  79.6386280  25.0643140  73.3086680  75.6377080  28.4596130  78.7950610
  75.2008070  28.6396930  79.6274760  76.2054760  29.2170750  78.6532330
  75.4701510  20.9716360  75.1539490  74.8150350  20.7028000  74.5099190
  76.3079460  20.8620840  74.7041470  89.9590900  24.6865110  81.1804080
  89.1450740  25.1162270  81.4429870  90.3665100  25.2983520  80.5673130
  88.4191950  15.7657650  69.3757980  88.8376830  15.5788630  68.5354640
  88.1128010  14.9136700  69.6860910  76.5077440  21.3568930  79.6942830
  76.8750480  21.2696330  80.5738850  75.9388260  20.5935480  79.5949690
  76.0593440  18.2678020  83.6001250  75.1649490  18.2344780  83.9394960
  76.5990990  18.4664810  84.3652500  89.7469370  15.0509740  85.4853000
  90.6239550  15.0593140  85.8687000  89.7590210  14.3140580  84.8745350
  74.6839590  18.1815290  71.0964820  73.7803670  18.4445490  70.9216480
  75.1680210  18.4526460  70.3164780  77.2266800  17.2380830  69.0059200
  77.9358500  16.8164050  68.5206480  76.5106740  17.3056060  68.3742550
  76.8740960  13.2920160  68.0461850  77.5969090  13.8329100  68.3643070
  77.1465480  13.0183580  67.1703390  76.5633150  12.5426350  77.9484470
  77.2109340  11.9923730  77.5079630  76.9834990  12.7969500  78.7700280
  90.0166950  29.4383710  74.7072350  90.6126020  29.1168280  74.0306770
  90.2745100  28.9655530  75.4985620  76.3165150  12.6982020  80.6909790
  75.9679970  13.1545840  81.4567970  75.9852850  11.8039150  80.7732220
  77.9229520  25.8701620  84.8562980  77.8799150  25.4994530  85.7377440
  78.0540530  26.8079190  84.9964800  81.6235550  27.4261210  80.4572700
  81.3826910  27.6935770  79.5703220  82.5638190  27.5966940  80.5123560
  83.8289970  13.8893900  84.2129210  83.7678860  14.4815730  84.9624620
  84.7690350  13.7819860  84.0679470  86.4664530  13.5463960  83.8521500
  87.0804940  13.8643250  83.1902580  87.0114090  13.0612550  84.4717360
  76.9885790  12.2258220  83.9660560  77.5368780  12.0446270  83.2026670
  77.0541100  11.4352330  84.5016870  77.7617550  28.8163870  81.9760760
  77.1677870  28.6848570  82.7150800  77.7541390  27.9802010  81.5102860
  87.2072570  12.1096100  80.1790790  86.3332410  12.4431210  79.9763720
  87.0983320  11.6369280  81.0042660  88.1144550  14.3166970  81.5632510
  87.7857910  13.5018730  81.1834240  89.0626850  14.2736780  81.4398200
  90.5679160  30.0879010  78.5370080  90.1082130  30.8394820  78.1628100
  89.9391620  29.3685480  78.4784880  77.3929780  26.1822250  80.9268800
  76.6663840  25.5627540  80.8594750  77.4538930  26.5762860  80.0566880
  80.9974880  28.3967250  77.7118210  81.5139900  27.7854610  77.1866470
  81.6472260  28.8996030  78.2029220  83.7370380  29.2875740  78.5387190
  84.0248190  29.0330040  77.6620200  84.2493600  28.7353100  79.1292760
  84.9547390  13.0265940  79.1183700  84.1719180  13.5011440  79.3980460
  84.6610320  12.1220770  79.0096880  89.5068460  13.7289040  77.1632790
  89.9476550  13.6734140  76.3154390  89.2376050  14.6447050  77.2342970
  75.6759780  29.4996640  74.1365560  75.5081820  28.8667320  74.8347450
  74.8094290  29.7056040  73.7859750  76.2987800  13.3313420  71.6397420
  77.0567160  13.4442300  71.0661450  75.8364970  14.1682620  71.5940850
  82.8401610  15.4452690  74.6299730  82.0276120  15.0709580  74.2895610
  83.3443250  14.6897770  74.9320920  87.3426590  12.1095140  75.8682800
  87.9455960  12.6815350  76.3431320  86.6019580  12.6734580  75.6456700
  90.4861190  12.5116700  71.1423080  90.6811820  13.4100150  71.4090510
  89.6991060  12.2803780  71.6356030  77.2822480  28.1929870  71.5815700
  76.7570100  28.5737900  70.8777660  77.2067060  28.8180640  72.3025410
  78.6712950  13.8577470  70.1799390  79.2005710  13.0707270  70.0507340
  79.3041270  14.5368660  70.4134920  80.8650790  13.5952610  73.2344780
  80.2353530  12.8939920  73.4014910  80.3255930  14.3556740  73.0177940
  83.8042740  30.2091840  85.9055390  84.7310050  29.9736110  85.9491350
  83.7893170  31.0363840  85.4241420  80.9906350  12.8736590  85.6697270
  80.7090620  13.3770190  84.9058090  81.3726050  12.0758340  85.3039400
  79.8815450  30.1412250  70.4564950  80.6134270  29.8571530  69.9088840
  80.1409120  29.9025530  71.3464330  79.0430240  26.2576980  70.4611280
  78.4139120  26.7262080  71.0097110  79.1578070  25.4126200  70.8957470
  87.5921810  12.2890170  86.2477740  87.4787260  12.6084780  87.1429260
  88.4091550  12.6902680  85.9515020  86.4979960  20.3082640  56.6112480
  86.4174010  19.3937250  56.3404190  86.0844380  20.8049710  55.9052190
  84.6298000  22.0861660  58.4921750  83.8540100  21.6062100  58.7820320
  85.2810930  21.4067310  58.3177910  78.6463830  22.3981470  59.3697510
  77.8148710  22.1430180  59.7694020  79.2544810  22.4692240  60.1055430
  88.6505430  26.4921850  57.2720880  88.1886960  25.7209090  57.6008050
  89.4630980  26.5187920  57.7773330  78.6265090  26.4321560  59.5655530
  78.9293130  25.5419300  59.3865750  79.3708680  26.9891780  59.3377780
  77.0555780  17.3583360  53.1539900  76.1672480  17.6999330  53.0519780
  77.3396970  17.1583680  52.2620730  75.0188790  19.9589010  59.0379600
  75.5904900  19.1911210  59.0383240  75.0190330  20.2577770  58.1286210
  84.8768740  28.7779860  56.8924870  84.2580180  29.2337360  56.3219310
  85.7320520  28.9331320  56.4914570  84.0706990  24.7618850  58.4991910
  84.0015270  23.8208790  58.3381040  84.8326850  24.8520260  59.0714480
  76.2613660  15.3673370  60.8248530  76.0816500  14.4699120  61.1051290
  75.8593740  15.9145240  61.4995480  85.1012160  17.5689230  58.7260840
  85.4776980  16.6961110  58.6134510  85.0031670  17.9047930  57.8351280
  79.2317170  15.9414860  54.1878280  79.3383920  16.8418590  54.4947040
  78.3209530  15.8932830  53.8972930  88.8836280  15.0639670  55.6589180
  89.7045900  14.5736240  55.7014660  88.9170360  15.6537330  56.4121020
  76.8800330  17.8633870  59.4330870  77.5610440  18.1272240  60.0518270
  76.5648380  17.0234740  59.7668880  81.0724900  18.9101230  58.5203460
  81.5803120  19.4082200  59.1608480  81.6038140  18.1336430  58.3442820
  79.3561000  13.5499790  62.7866880  79.3579440  14.0672180  61.9812780
  78.5265310  13.0729970  62.7636810  85.7432090  23.6619100  54.2856780
  85.1249360  24.1268550  53.7219500  86.2555340  24.3546580  54.7026290
  80.6063850  23.1894970  60.9640380  80.2733230  23.8163890  61.6061450
  80.7830530  23.7156850  60.1842050  89.1197760  17.0040050  58.4316720
  88.4153330  17.2924940  59.0119830  89.4809920  17.8140160  58.0716280
  79.0376330  15.2609750  60.7937330  79.3793140  16.1051800  60.4991200
  78.0992140  15.4093490  60.9102670  79.8182950  25.1575770  62.7789560
  80.4356950  25.8326850  62.4974010  78.9576070  25.5663750  62.6877060
  75.1115290  24.3475630  51.6596410  74.7343270  24.8362730  50.9281310
  75.3688360  25.0200910  52.2902940  82.7204220  12.7492020  57.1181920
  83.0279200  12.1938910  56.4017420  81.7904920  12.8836480  56.9354910
  88.2719280  28.4659310  59.4089380  88.2846440  28.0621600  58.5411640
  87.7194500  29.2406600  59.3050810  89.5664700  25.1875530  54.4979550
  89.4561030  24.2449860  54.6228970  89.5632950  25.5491170  55.3842310
  87.6704720  23.3689150  60.7371990  88.0873510  23.1549260  59.9025450
  88.3944540  23.6261940  61.3080610  85.1084980  20.8140850  53.8542040
  84.1814260  20.7478230  54.0830510  85.2609800  21.7520980  53.7397280
  85.0954060  17.0857850  50.8509200  84.1557730  17.2471810  50.9361660
  85.4137320  17.8043530  50.3045190  89.1382270  22.3761150  54.3577290
  88.5194690  22.0380700  53.7103590  89.1206720  21.7320910  55.0656480
  88.5808830  18.5545690  61.7743100  88.1680010  19.3799400  62.0283090
  87.8484780  17.9690730  61.5819460  80.7141620  21.3405590  56.6361770
  80.3098620  20.6282840  56.1407670  80.8004740  20.9958830  57.5249810
  81.1823320  25.0273150  58.8000980  80.8851610  24.4218620  58.1208760
  82.1323140  25.0650460  58.6890340  79.4270240  18.1148800  60.4160810
  79.9784830  18.2244140  59.6414060  79.9413750  18.4886400  61.1316040
  89.2708930  28.6005020  62.4624080  88.7939490  29.4077210  62.2696690
  88.5870720  27.9483350  62.6150290  80.2741750  24.7654840  65.4508780
  79.3770280  24.9894810  65.6982180  80.2994620  24.8889780  64.5020180
  87.3146970  21.6147960  51.3650040  87.7540250  20.7770390  51.2187860
  88.0275390  22.2477360  51.4514180  79.1012970  21.6368160  64.0266150
  78.9620740  22.5090960  64.3953550  78.2194330  21.2940970  63.8814090
  85.4242350  26.5544030  55.3331280  85.8638260  27.2968360  54.9186670
  85.3629240  26.7970600  56.2570240  80.8993320  27.5789860  66.2351300
  80.8708750  27.9832810  65.3679730  80.7358290  26.6500220  66.0722900
  77.4146250  20.2350570  54.1368420  77.2943850  20.9612660  53.5249690
  77.1047140  19.4653480  53.6596330  75.0531620  23.4065710  59.9437060
  75.1312040  23.5414480  58.9992780  75.6673300  22.6981600  60.1365180
  76.2979250  25.1065900  56.3543240  75.8907330  25.2480490  55.4996840
  77.1892260  24.8226060  56.1514450  86.1158130  29.2557810  63.2610290
  86.6302800  29.1665820  64.0632720  85.2727210  29.6017510  63.5538200
  88.0912530  29.5413150  52.6894290  87.9313670  29.2516090  53.5876120
  87.9259240  28.7653280  52.1539520  80.5700910  29.3211680  54.4665910
  80.3943390  28.4047220  54.2533710  79.7156650  29.6798970  54.7063710
  87.7938660  27.0500710  51.2492290  87.1003820  27.0478000  50.5894570
  88.5361520  26.6260030  50.8186460  87.3588590  28.6763420  55.3240780
  87.8145540  27.8952800  55.6379400  87.6981110  29.3870240  55.8681960
  75.1091140  24.4479880  62.4831520  75.2722180  23.9785240  61.6650890
  75.5743590  23.9403440  63.1480360  79.8809910  13.5785640  57.5192090
  79.4378060  14.3595180  57.1876610  80.4394900  13.9015530  58.2263030
  84.1679720  16.4454160  63.1227410  83.7059090  16.6537180  63.9347350
  83.7657830  15.6313510  62.8198080  89.1684230  17.6663110  64.2524070
  88.3177820  17.3668860  64.5733140  89.0086020  17.9105120  63.3407890
  86.2633940  19.1664860  66.3522860  86.5887350  18.3328610  66.0125090
  87.0514270  19.6893380  66.5001190  82.9968730  13.1996340  52.3997920
  82.3722910  13.1956210  53.1251230  82.9098850  12.3327300  52.0033890
  81.9185810  14.1232970  59.3781690  82.2158140  15.0295800  59.2973710
  82.4671370  13.6351750  58.7641260  79.6724130  18.7019210  55.2473340
  79.4465050  18.4856380  56.1519960  78.8916660  19.1347670  54.9019310
  86.9021890  18.7082580  53.8463990  86.3030780  19.4318380  53.6627610
  87.4501500  18.6459360  53.0640440  82.1123340  19.6004790  65.9133610
  82.0166940  18.6599520  65.7634010  82.9555320  19.8219860  65.5181680
  85.5086760  17.3446120  55.8767270  85.9016330  17.6618320  55.0635960
  85.8703610  16.4658000  55.9911790  77.2433880  16.0118460  64.0667390
  76.8497270  16.8593670  64.2740170  76.5552280  15.3744830  64.2576030
  83.8178930  16.0953430  67.1364130  83.1277250  15.9025630  67.7710220
  84.5611230  16.3788070  67.6688430  74.5450930  13.9346920  58.0997470
  74.2563980  14.5049780  58.8122450  75.2896690  13.4551370  58.4628700
  74.7321160  17.8767040  49.3100190  74.6495830  18.8197800  49.4515180
  74.3804220  17.7341950  48.4312540  86.0941900  19.9351870  59.9718050
  85.3623020  20.4438680  60.3208150  85.6966240  19.1181850  59.6706830
  82.5319290  16.6106070  58.3770540  82.5355350  16.1696020  57.5275080
  83.4270410  16.9323400  58.4842360  78.3821670  16.4932560  57.3364750
  78.0421720  16.9707790  58.0931800  77.6198990  16.0397680  56.9765850
  82.5939440  17.6118150  51.3677300  82.7152260  17.5704630  52.3163120
  82.2087950  18.4742300  51.2124030  86.5567810  15.3885550  59.3840990
  86.5740550  15.8394200  60.2282840  86.3083390  14.4891190  59.5974430
  81.6060940  19.9219290  50.7660600  81.0377840  19.4737540  50.1396510
  82.3149940  20.2812070  50.2325750  89.9838560  12.8017730  65.2227370
  90.3084330  12.0707390  65.7485350  90.0195070  12.4831370  64.3208360
  76.6830120  23.8231310  64.6427330  76.2984910  23.1824980  65.2410290
  76.9942310  24.5267430  65.2122060  82.8327260  20.6707850  60.1235950
  83.1997390  20.1966420  60.8697290  82.6432320  21.5449420  60.4644290
  75.6967750  15.4151540  56.2529420  75.4114670  15.0507210  57.0908040
  75.6346610  14.6832000  55.6392560  80.6226630  19.7116490  62.4420160
  80.3183700  20.5908470  62.6670520  81.5773090  19.7716280  62.4777600
  79.1508420  23.9177480  53.0387010  78.3770680  23.3775100  52.8785730
  79.8803050  23.3984090  52.7004770  89.9096400  22.9142840  58.8313400
  90.6295520  23.4098130  58.4409510  89.7078220  22.2360730  58.1867270
  85.3706340  14.3080800  52.9742790  84.5570950  13.8093970  52.8988100
  85.1768290  15.1479050  52.5579140  85.2915200  22.9851900  64.7182400
  85.2252510  22.0647570  64.4639990  84.6620340  23.0827340  65.4327040
  88.0854730  18.6800450  51.2704950  88.9734350  18.9917680  51.0956290
  88.0559820  17.8072700  50.8785530  79.1945820  23.5857860  56.6765820
  79.7124490  22.7826120  56.6222710  78.7429840  23.5237000  57.5182650
  84.0815320  24.8524140  51.9493120  84.4231020  25.5966370  51.4536440
  83.2528030  25.1655260  52.3117950  76.6790360  20.5519230  63.5891520
  76.3205300  21.2173080  64.1764860  76.3844920  19.7202780  63.9604140
  79.8803480  21.0103470  66.4731070  79.5803620  21.1560650  65.5758890
  80.6514720  20.4508760  66.3804460  85.2231930  25.8072470  64.4686200
  85.2376470  24.8753430  64.2505110  84.5157030  25.8932230  65.1075970
  86.9642730  24.1739980  57.3138630  87.3166550  23.5768110  56.6540000
  86.0805060  23.8484210  57.4846880  83.0506010  24.9337670  54.7209040
  83.7377140  25.4806880  55.1016630  82.2638430  25.4778400  54.7558650
  75.1898410  20.5510490  50.2126120  76.0593260  20.8335290  50.4962040
  74.6988730  21.3646360  50.0974930  82.3533220  21.9383700  54.3334400
  82.8096000  22.7488950  54.5594590  82.0021430  21.6206840  55.1652890
  84.6565830  27.4490040  61.5626700  85.3008050  27.6549420  62.2400120
  85.0195270  26.6878440  61.1097550  78.2545000  12.2821350  54.8056920
  78.1259630  12.2739250  55.7541840  77.4307020  12.6204440  54.4547930
  85.9297910  25.4522390  60.2804150  86.5720140  24.7515550  60.3936320
  86.4547260  26.2320830  60.1001040  89.7753630  25.7371010  50.0043290
  89.5491210  25.0201450  50.5967930  89.3849830  25.4883450  49.1665040
  87.7035530  26.2517290  63.4840210  88.0391770  26.8383980  64.1618130
  86.7835870  26.1210000  63.7138000  75.5569660  29.7637870  50.7787750
  75.9167300  30.3627210  50.1245020  75.4162000  30.3097760  51.5522780
  75.2538930  14.0412470  64.2663620  74.5397450  14.2409390  64.8716230
  75.6733970  13.2652040  64.6378420  89.3569880  23.6542950  51.6657450
  89.0691580  24.1155640  52.4535330  90.1522050  23.1940720  51.9341670
  75.5411520  28.0292730  65.2530150  75.6502640  27.0887470  65.1125540
  74.8892080  28.2947480  64.6043880  83.5324110  26.3008620  66.6528270
  83.2120980  25.5817860  67.1973960  82.8582470  26.9763690  66.7264330
  81.5738280  27.1469070  51.5961420  81.5648380  27.8798760  50.9805930
  80.6536640  26.9000650  51.6888380  77.1744920  22.3683960  52.3408180
  76.5672870  23.1082860  52.3503480  77.6494270  22.4583320  51.5146380
  86.7477710  16.5334780  62.0165070  87.1158530  15.7129990  62.3444640
  85.8875910  16.5936670  62.4320720  90.1139740  15.4891720  52.8252630
  89.4852900  15.5937390  52.1110860  89.6191660  15.7088500  53.6146510
  84.5597880  27.2097310  50.2586610  84.6609860  27.0061300  49.3288590
  83.6599620  26.9555590  50.4634390  82.0823770  17.7677670  54.2410510
  81.3739920  18.2364010  54.6824120  82.3668250  17.1099680  54.8755700
  83.7079700  19.1874370  62.2403040  84.2064950  19.6620190  62.9054890
  83.8502650  18.2637890  62.4473070  86.1139200  14.4928330  55.6806300
  85.9906980  14.5114460  54.7315810  87.0623760  14.5407270  55.8004700
  83.2015990  29.7283630  54.9534280  83.4557490  29.6905020  54.0313650
  82.2528470  29.6016960  54.9462530  80.2858790  16.0762750  51.6161220
  81.1349320  16.5132900  51.5501410  79.9190060  16.3883010  52.4433280
  89.2068570  20.6475510  56.5292790  88.2658710  20.6625740  56.7040480
  89.5212640  19.8611470  56.9753090  79.1850210  22.3295110  50.0896750
  79.9513480  22.2176470  50.6522180  79.2624900  21.6333080  49.4373520
  77.8796970  19.7620180  50.7729640  77.9600560  18.8147690  50.8847040
  78.7716720  20.0927060  50.8790300  78.6811680  29.9115570  57.8764180
  79.4174160  29.3631030  58.1472750  79.0652600  30.7771580  57.7370170
  75.5657160  25.9789140  53.7505690  74.6396940  26.2210280  53.7411100
  76.0313590  26.8063400  53.6290440  77.6869960  29.0961640  67.0649760
  78.4882690  29.4173690  67.4785160  77.1721780  28.7357220  67.7869670
  81.7913990  29.0845880  49.6989750  82.5842600  29.3734710  49.2471540
  81.2718340  28.6538050  49.0202230  86.5234590  25.2041510  67.0125170
  85.9172750  25.2273110  66.2720920  86.2188700  24.4724550  67.5492420
  87.9534960  28.9321800  65.6234580  88.9056710  28.8479820  65.5734820
  87.8063180  29.5963510  66.2968370  75.4067770  21.5835100  66.0085810
  75.9106790  21.0042380  66.5802040  74.6675190  21.8675330  66.5462180
  82.3091390  24.3049290  49.5632100  82.2042030  23.6901640  50.2893480
  82.1415610  23.7815180  48.7795110  82.4605710  22.9906090  65.5421330
  81.6951380  23.5591090  65.4576000  82.6421670  22.6982300  64.6489560
  85.5494120  23.3669320  50.1674090  85.0004220  23.8138620  50.8116830
  86.1713380  22.8618570  50.6911760  89.6029060  24.7211420  66.0996350
  90.3438530  25.0587180  65.5963810  88.8401740  24.8903480  65.5466120
  77.4390850  19.7264690  66.9035880  77.4796190  19.4278560  67.8121110
  78.2936350  20.1272300  66.7443400  81.2169240  22.3260240  52.0639390
  81.6385660  22.1600110  52.9070780  81.3420080  21.5160470  51.5694530
  79.3796660  18.3056790  64.8710370  78.8493120  17.8147740  64.2433710
  80.0484730  18.7340990  64.3368300  83.7296880  21.3497850  49.3116490
  84.2502540  20.6346870  48.9457640  84.3765280  21.9883720  49.6117000
  88.2774720  22.7726250  64.6351560  88.6915740  22.9271330  65.4841980
  87.3425720  22.8981470  64.7977340  88.7496890  20.1122410  66.6390710
  89.3317660  19.3574730  66.5511190  88.9258660  20.6429850  65.8622190
  79.8668960  15.2719160  64.9507660  79.7725830  14.6539910  64.2258530
  79.2866350  15.9985450  64.7237570  82.6330400  13.8292400  61.9835050
  82.1847700  13.8516660  61.1380600  81.9995600  13.4311420  62.5805350
  83.0389950  22.7246730  62.6047490  83.4578060  23.5679460  62.4323730
  82.1198580  22.8618770  62.3754270  85.3753850  20.4562910  63.9885330
  85.4950060  19.8604050  64.7280170  86.2347850  20.4932600  63.5686630
  87.7141750  21.0100100  62.5647840  87.1876970  21.5342720  61.9612980
  88.0573090  21.6427490  63.1957570  80.1128140  18.3993470  49.0097550
  79.9117200  17.5360830  49.3710890  79.9420190  18.3126830  48.0719150
  80.8897370  29.0299740  63.7205220  80.3518460  29.7545800  63.4013920
  81.1431330  28.5530080  62.9302560  82.1422620  16.9984260  65.2461150
  82.7322310  16.6900110  65.9338970  81.3242860  16.5264010  65.4021050
  86.9616050  16.6150070  65.4794170  86.2731570  15.9531610  65.4144160
  87.6822070  16.1688340  65.9242630  87.5916450  13.2101700  51.5384430
  87.8718740  12.3669600  51.8943850  86.8182180  13.4424810  52.0523180
  78.9110940  15.4994090  48.9975430  79.2136840  15.5061520  48.0894580
  79.6505530  15.1491950  49.4943090  83.7459580  30.2650950  63.9791870
  83.6718280  31.1686090  64.2864240  82.8438420  29.9462850  63.9513940
  82.1295870  14.4428710  49.9831630  81.7817870  13.7652700  49.4034080
  82.3308640  13.9818220  50.7975020  84.2944910  29.4309460  51.6018230
  85.1895700  29.7694430  51.6236990  84.3262540  28.7088870  50.9742510
  77.9341070  24.8036510  49.8305230  78.3715940  25.3466180  50.4862810
  78.4188800  23.9783460  49.8401570  75.1486870  27.5925540  57.2825490
  75.4789880  26.7246600  57.0504130  75.5777870  27.7984060  58.1130450
  79.7448790  25.9234550  54.9427460  79.4444330  25.7999520  55.8431370
  79.6386280  25.0643140  54.5343190  75.6377080  28.4596130  60.0207120
  75.2008070  28.6396930  60.8531270  76.2054760  29.2170750  59.8788840
  75.4701510  20.9716360  56.3796000  74.8150350  20.7028000  55.7355700
  76.3079460  20.8620840  55.9297980  89.9590900  24.6865110  62.4060590
  89.1450740  25.1162270  62.6686380  90.3665100  25.2983520  61.7929640
  88.4191950  15.7657650  50.6014490  88.8376830  15.5788630  49.7611150
  88.1128010  14.9136700  50.9117420  76.5077440  21.3568930  60.9199340
  76.8750480  21.2696330  61.7995360  75.9388260  20.5935480  60.8206200
  76.0593440  18.2678020  64.8257760  75.1649490  18.2344780  65.1651470
  76.5990990  18.4664810  65.5909010  89.7469370  15.0509740  66.7109510
  90.6239550  15.0593140  67.0943510  89.7590210  14.3140580  66.1001860
  74.6839590  18.1815290  52.3221330  73.7803670  18.4445490  52.1472990
  75.1680210  18.4526460  51.5421290  77.2266800  17.2380830  50.2315710
  77.9358500  16.8164050  49.7462990  76.5106740  17.3056060  49.5999060
  76.8740960  13.2920160  49.2718360  77.5969090  13.8329100  49.5899580
  77.1465480  13.0183580  48.3959900  76.5633150  12.5426350  59.1740980
  77.2109340  11.9923730  58.7336140  76.9834990  12.7969500  59.9956790
  90.0166950  29.4383710  55.9328860  90.6126020  29.1168280  55.2563280
  90.2745100  28.9655530  56.7242130  76.3165150  12.6982020  61.9166300
  75.9679970  13.1545840  62.6824480  75.9852850  11.8039150  61.9988730
  77.9229520  25.8701620  66.0819490  77.8799150  25.4994530  66.9633950
  78.0540530  26.8079190  66.2221310  81.6235550  27.4261210  61.6829210
  81.3826910  27.6935770  60.7959730  82.5638190  27.5966940  61.7380070
  83.8289970  13.8893900  65.4385720  83.7678860  14.4815730  66.1881130
  84.7690350  13.7819860  65.2935980  86.4664530  13.5463960  65.0778010
  87.0804940  13.8643250  64.4159090  87.0114090  13.0612550  65.6973870
  76.9885790  12.2258220  65.1917070  77.5368780  12.0446270  64.4283180
  77.0541100  11.4352330  65.7273380  77.7617550  28.8163870  63.2017270
  77.1677870  28.6848570  63.9407310  77.7541390  27.9802010  62.7359370
  87.2072570  12.1096100  61.4047300  86.3332410  12.4431210  61.2020230
  87.0983320  11.6369280  62.2299170  88.1144550  14.3166970  62.7889020
  87.7857910  13.5018730  62.4090750  89.0626850  14.2736780  62.6654710
  90.5679160  30.0879010  59.7626590  90.1082130  30.8394820  59.3884610
  89.9391620  29.3685480  59.7041390  77.3929780  26.1822250  62.1525310
  76.6663840  25.5627540  62.0851260  77.4538930  26.5762860  61.2823390
  80.9974880  28.3967250  58.9374720  81.5139900  27.7854610  58.4122980
  81.6472260  28.8996030  59.4285730  83.7370380  29.2875740  59.7643700
  84.0248190  29.0330040  58.8876710  84.2493600  28.7353100  60.3549270
  84.9547390  13.0265940  60.3440210  84.1719180  13.5011440  60.6236970
  84.6610320  12.1220770  60.2353390  89.5068460  13.7289040  58.3889300
  89.9476550  13.6734140  57.5410900  89.2376050  14.6447050  58.4599480
  75.6759780  29.4996640  55.3622070  75.5081820  28.8667320  56.0603960
  74.8094290  29.7056040  55.0116260  76.2987800  13.3313420  52.8653930
  77.0567160  13.4442300  52.2917960  75.8364970  14.1682620  52.8197360
  82.8401610  15.4452690  55.8556240  82.0276120  15.0709580  55.5152120
  83.3443250  14.6897770  56.1577430  87.3426590  12.1095140  57.0939310
  87.9455960  12.6815350  57.5687830  86.6019580  12.6734580  56.8713210
  90.4861190  12.5116700  52.3679590  90.6811820  13.4100150  52.6347020
  89.6991060  12.2803780  52.8612540  77.2822480  28.1929870  52.8072210
  76.7570100  28.5737900  52.1034170  77.2067060  28.8180640  53.5281920
  78.6712950  13.8577470  51.4055900  79.2005710  13.0707270  51.2763850
  79.3041270  14.5368660  51.6391430  80.8650790  13.5952610  54.4601290
  80.2353530  12.8939920  54.6271420  80.3255930  14.3556740  54.2434450
  83.8042740  30.2091840  67.1311900  84.7310050  29.9736110  67.1747860
  83.7893170  31.0363840  66.6497930  80.9906350  12.8736590  66.8953780
  80.7090620  13.3770190  66.1314600  81.3726050  12.0758340  66.5295910
  79.8815450  30.1412250  51.6821460  80.6134270  29.8571530  51.1345350
  80.1409120  29.9025530  52.5720840  79.0430240  26.2576980  51.6867790
  78.4139120  26.7262080  52.2353620  79.1578070  25.4126200  52.1213980
  87.5921810  12.2890170  67.4734250  87.4787260  12.6084780  68.3685770
  88.4091550  12.6902680  67.1771530  86.4979960  20.3082640  37.8368990
  86.4174010  19.3937250  37.5660700  86.0844380  20.8049710  37.1308700
  84.6298000  22.0861660  39.7178260  83.8540100  21.6062100  40.0076830
  85.2810930  21.4067310  39.5434420  78.6463830  22.3981470  40.5954020
  77.8148710  22.1430180  40.9950530  79.2544810  22.4692240  41.3311940
  88.6505430  26.4921850  38.4977390  88.1886960  25.7209090  38.8264560
  89.4630980  26.5187920  39.0029840  78.6265090  26.4321560  40.7912040
  78.9293130  25.5419300  40.6122260  79.3708680  26.9891780  40.5634290
  77.0555780  17.3583360  34.3796410  76.1672480  17.6999330  34.2776290
  77.3396970  17.1583680  33.4877240  75.0188790  19.9589010  40.2636110
  75.5904900  19.1911210  40.2639750  75.0190330  20.2577770  39.3542720
  84.8768740  28.7779860  38.1181380  84.2580180  29.2337360  37.5475820
  85.7320520  28.9331320  37.7171080  84.0706990  24.7618850  39.7248420
  84.0015270  23.8208790  39.5637550  84.8326850  24.8520260  40.2970990
  76.2613660  15.3673370  42.0505040  76.0816500  14.4699120  42.3307800
  75.8593740  15.9145240  42.7251990  85.1012160  17.5689230  39.9517350
  85.4776980  16.6961110  39.8391020  85.0031670  17.9047930  39.0607790
  79.2317170  15.9414860  35.4134790  79.3383920  16.8418590  35.7203550
  78.3209530  15.8932830  35.1229440  88.8836280  15.0639670  36.8845690
  89.7045900  14.5736240  36.9271170  88.9170360  15.6537330  37.6377530
  76.8800330  17.8633870  40.6587380  77.5610440  18.1272240  41.2774780
  76.5648380  17.0234740  40.9925390  81.0724900  18.9101230  39.7459970
  81.5803120  19.4082200  40.3864990  81.6038140  18.1336430  39.5699330
  79.3561000  13.5499790  44.0123390  79.3579440  14.0672180  43.2069290
  78.5265310  13.0729970  43.9893320  85.7432090  23.6619100  35.5113290
  85.1249360  24.1268550  34.9476010  86.2555340  24.3546580  35.9282800
  80.6063850  23.1894970  42.1896890  80.2733230  23.8163890  42.8317960
  80.7830530  23.7156850  41.4098560  89.1197760  17.0040050  39.6573230
  88.4153330  17.2924940  40.2376340  89.4809920  17.8140160  39.2972790
  79.0376330  15.2609750  42.0193840  79.3793140  16.1051800  41.7247710
  78.0992140  15.4093490  42.1359180  79.8182950  25.1575770  44.0046070
  80.4356950  25.8326850  43.7230520  78.9576070  25.5663750  43.9133570
  75.1115290  24.3475630  32.8852920  74.7343270  24.8362730  32.1537820
  75.3688360  25.0200910  33.5159450  82.7204220  12.7492020  38.3438430
  83.0279200  12.1938910  37.6273930  81.7904920  12.8836480  38.1611420
  88.2719280  28.4659310  40.6345890  88.2846440  28.0621600  39.7668150
  87.7194500  29.2406600  40.5307320  89.5664700  25.1875530  35.7236060
  89.4561030  24.2449860  35.8485480  89.5632950  25.5491170  36.6098820
  87.6704720  23.3689150  41.9628500  88.0873510  23.1549260  41.1281960
  88.3944540  23.6261940  42.5337120  85.1084980  20.8140850  35.0798550
  84.1814260  20.7478230  35.3087020  85.2609800  21.7520980  34.9653790
  85.0954060  17.0857850  32.0765710  84.1557730  17.2471810  32.1618170
  85.4137320  17.8043530  31.5301700  89.1382270  22.3761150  35.5833800
  88.5194690  22.0380700  34.9360100  89.1206720  21.7320910  36.2912990
  88.5808830  18.5545690  42.9999610  88.1680010  19.3799400  43.2539600
  87.8484780  17.9690730  42.8075970  80.7141620  21.3405590  37.8618280
  80.3098620  20.6282840  37.3664180  80.8004740  20.9958830  38.7506320
  81.1823320  25.0273150  40.0257490  80.8851610  24.4218620  39.3465270
  82.1323140  25.0650460  39.9146850  79.4270240  18.1148800  41.6417320
  79.9784830  18.2244140  40.8670570  79.9413750  18.4886400  42.3572550
  89.2708930  28.6005020  43.6880590  88.7939490  29.4077210  43.4953200
  88.5870720  27.9483350  43.8406800  80.2741750  24.7654840  46.6765290
  79.3770280  24.9894810  46.9238690  80.2994620  24.8889780  45.7276690
  87.3146970  21.6147960  32.5906550  87.7540250  20.7770390  32.4444370
  88.0275390  22.2477360  32.6770690  79.1012970  21.6368160  45.2522660
  78.9620740  22.5090960  45.6210060  78.2194330  21.2940970  45.1070600
  85.4242350  26.5544030  36.5587790  85.8638260  27.2968360  36.1443180
  85.3629240  26.7970600  37.4826750  80.8993320  27.5789860  47.4607810
  80.8708750  27.9832810  46.5936240  80.7358290  26.6500220  47.2979410
  77.4146250  20.2350570  35.3624930  77.2943850  20.9612660  34.7506200
  77.1047140  19.4653480  34.8852840  75.0531620  23.4065710  41.1693570
  75.1312040  23.5414480  40.2249290  75.6673300  22.6981600  41.3621690
  76.2979250  25.1065900  37.5799750  75.8907330  25.2480490  36.7253350
  77.1892260  24.8226060  37.3770960  86.1158130  29.2557810  44.4866800
  86.6302800  29.1665820  45.2889230  85.2727210  29.6017510  44.7794710
  88.0912530  29.5413150  33.9150800  87.9313670  29.2516090  34.8132630
  87.9259240  28.7653280  33.3796030  80.5700910  29.3211680  35.6922420
  80.3943390  28.4047220  35.4790220  79.7156650  29.6798970  35.9320220
  87.7938660  27.0500710  32.4748800  87.1003820  27.0478000  31.8151080
  88.5361520  26.6260030  32.0442970  87.3588590  28.6763420  36.5497290
  87.8145540  27.8952800  36.8635910  87.6981110  29.3870240  37.0938470
  75.1091140  24.4479880  43.7088030  75.2722180  23.9785240  42.8907400
  75.5743590  23.9403440  44.3736870  79.8809910  13.5785640  38.7448600
  79.4378060  14.3595180  38.4133120  80.4394900  13.9015530  39.4519540
  84.1679720  16.4454160  44.3483920  83.7059090  16.6537180  45.1603860
  83.7657830  15.6313510  44.0454590  89.1684230  17.6663110  45.4780580
  88.3177820  17.3668860  45.7989650  89.0086020  17.9105120  44.5664400
  86.2633940  19.1664860  47.5779370  86.5887350  18.3328610  47.2381600
  87.0514270  19.6893380  47.7257700  82.9968730  13.1996340  33.6254430
  82.3722910  13.1956210  34.3507740  82.9098850  12.3327300  33.2290400
  81.9185810  14.1232970  40.6038200  82.2158140  15.0295800  40.5230220
  82.4671370  13.6351750  39.9897770  79.6724130  18.7019210  36.4729850
  79.4465050  18.4856380  37.3776470  78.8916660  19.1347670  36.1275820
  86.9021890  18.7082580  35.0720500  86.3030780  19.4318380  34.8884120
  87.4501500  18.6459360  34.2896950  82.1123340  19.6004790  47.1390120
  82.0166940  18.6599520  46.9890520  82.9555320  19.8219860  46.7438190
  85.5086760  17.3446120  37.1023780  85.9016330  17.6618320  36.2892470
  85.8703610  16.4658000  37.2168300  77.2433880  16.0118460  45.2923900
  76.8497270  16.8593670  45.4996680  76.5552280  15.3744830  45.4832540
  83.8178930  16.0953430  48.3620640  83.1277250  15.9025630  48.9966730
  84.5611230  16.3788070  48.8944940  74.5450930  13.9346920  39.3253980
  74.2563980  14.5049780  40.0378960  75.2896690  13.4551370  39.6885210
  74.7321160  17.8767040  30.5356700  74.6495830  18.8197800  30.6771690
  74.3804220  17.7341950  29.6569050  86.0941900  19.9351870  41.1974560
  85.3623020  20.4438680  41.5464660  85.6966240  19.1181850  40.8963340
  82.5319290  16.6106070  39.6027050  82.5355350  16.1696020  38.7531590
  83.4270410  16.9323400  39.7098870  78.3821670  16.4932560  38.5621260
  78.0421720  16.9707790  39.3188310  77.6198990  16.0397680  38.2022360
  82.5939440  17.6118150  32.5933810  82.7152260  17.5704630  33.5419630
  82.2087950  18.4742300  32.4380540  86.5567810  15.3885550  40.6097500
  86.5740550  15.8394200  41.4539350  86.3083390  14.4891190  40.8230940
  81.6060940  19.9219290  31.9917110  81.0377840  19.4737540  31.3653020
  82.3149940  20.2812070  31.4582260  89.9838560  12.8017730  46.4483880
  90.3084330  12.0707390  46.9741860  90.0195070  12.4831370  45.5464870
  76.6830120  23.8231310  45.8683840  76.2984910  23.1824980  46.4666800
  76.9942310  24.5267430  46.4378570  82.8327260  20.6707850  41.3492460
  83.1997390  20.1966420  42.0953800  82.6432320  21.5449420  41.6900800
  75.6967750  15.4151540  37.4785930  75.4114670  15.0507210  38.3164550
  75.6346610  14.6832000  36.8649070  80.6226630  19.7116490  43.6676670
  80.3183700  20.5908470  43.8927030  81.5773090  19.7716280  43.7034110
  79.1508420  23.9177480  34.2643520  78.3770680  23.3775100  34.1042240
  79.8803050  23.3984090  33.9261280  89.9096400  22.9142840  40.0569910
  90.6295520  23.4098130  39.6666020  89.7078220  22.2360730  39.4123780
  85.3706340  14.3080800  34.1999300  84.5570950  13.8093970  34.1244610
  85.1768290  15.1479050  33.7835650  85.2915200  22.9851900  45.9438910
  85.2252510  22.0647570  45.6896500  84.6620340  23.0827340  46.6583550
  88.0854730  18.6800450  32.4961460  88.9734350  18.9917680  32.3212800
  88.0559820  17.8072700  32.1042040  79.1945820  23.5857860  37.9022330
  79.7124490  22.7826120  37.8479220  78.7429840  23.5237000  38.7439160
  84.0815320  24.8524140  33.1749630  84.4231020  25.5966370  32.6792950
  83.2528030  25.1655260  33.5374460  76.6790360  20.5519230  44.8148030
  76.3205300  21.2173080  45.4021370  76.3844920  19.7202780  45.1860650
  79.8803480  21.0103470  47.6987580  79.5803620  21.1560650  46.8015400
  80.6514720  20.4508760  47.6060970  85.2231930  25.8072470  45.6942710
  85.2376470  24.8753430  45.4761620  84.5157030  25.8932230  46.3332480
  86.9642730  24.1739980  38.5395140  87.3166550  23.5768110  37.8796510
  86.0805060  23.8484210  38.7103390  83.0506010  24.9337670  35.9465550
  83.7377140  25.4806880  36.3273140  82.2638430  25.4778400  35.9815160
  75.1898410  20.5510490  31.4382630  76.0593260  20.8335290  31.7218550
  74.6988730  21.3646360  31.3231440  82.3533220  21.9383700  35.5590910
  82.8096000  22.7488950  35.7851100  82.0021430  21.6206840  36.3909400
  84.6565830  27.4490040  42.7883210  85.3008050  27.6549420  43.4656630
  85.0195270  26.6878440  42.3354060  78.2545000  12.2821350  36.0313430
  78.1259630  12.2739250  36.9798350  77.4307020  12.6204440  35.6804440
  85.9297910  25.4522390  41.5060660  86.5720140  24.7515550  41.6192830
  86.4547260  26.2320830  41.3257550  89.7753630  25.7371010  31.2299800
  89.5491210  25.0201450  31.8224440  89.3849830  25.4883450  30.3921550
  87.7035530  26.2517290  44.7096720  88.0391770  26.8383980  45.3874640
  86.7835870  26.1210000  44.9394510  75.5569660  29.7637870  32.0044260
  75.9167300  30.3627210  31.3501530  75.4162000  30.3097760  32.7779290
  75.2538930  14.0412470  45.4920130  74.5397450  14.2409390  46.0972740
  75.6733970  13.2652040  45.8634930  89.3569880  23.6542950  32.8913960
  89.0691580  24.1155640  33.6791840  90.1522050  23.1940720  33.1598180
  75.5411520  28.0292730  46.4786660  75.6502640  27.0887470  46.3382050
  74.8892080  28.2947480  45.8300390  83.5324110  26.3008620  47.8784780
  83.2120980  25.5817860  48.4230470  82.8582470  26.9763690  47.9520840
  81.5738280  27.1469070  32.8217930  81.5648380  27.8798760  32.2062440
  80.6536640  26.9000650  32.9144890  77.1744920  22.3683960  33.5664690
  76.5672870  23.1082860  33.5759990  77.6494270  22.4583320  32.7402890
  86.7477710  16.5334780  43.2421580  87.1158530  15.7129990  43.5701150
  85.8875910  16.5936670  43.6577230  90.1139740  15.4891720  34.0509140
  89.4852900  15.5937390  33.3367370  89.6191660  15.7088500  34.8403020
  84.5597880  27.2097310  31.4843120  84.6609860  27.0061300  30.5545100
  83.6599620  26.9555590  31.6890900  82.0823770  17.7677670  35.4667020
  81.3739920  18.2364010  35.9080630  82.3668250  17.1099680  36.1012210
  83.7079700  19.1874370  43.4659550  84.2064950  19.6620190  44.1311400
  83.8502650  18.2637890  43.6729580  86.1139200  14.4928330  36.9062810
  85.9906980  14.5114460  35.9572320  87.0623760  14.5407270  37.0261210
  83.2015990  29.7283630  36.1790790  83.4557490  29.6905020  35.2570160
  82.2528470  29.6016960  36.1719040  80.2858790  16.0762750  32.8417730
  81.1349320  16.5132900  32.7757920  79.9190060  16.3883010  33.6689790
  89.2068570  20.6475510  37.7549300  88.2658710  20.6625740  37.9296990
  89.5212640  19.8611470  38.2009600  79.1850210  22.3295110  31.3153260
  79.9513480  22.2176470  31.8778690  79.2624900  21.6333080  30.6630030
  77.8796970  19.7620180  31.9986150  77.9600560  18.8147690  32.1103550
  78.7716720  20.0927060  32.1046810  78.6811680  29.9115570  39.1020690
  79.4174160  29.3631030  39.3729260  79.0652600  30.7771580  38.9626680
  75.5657160  25.9789140  34.9762200  74.6396940  26.2210280  34.9667610
  76.0313590  26.8063400  34.8546950  77.6869960  29.0961640  48.2906270
  78.4882690  29.4173690  48.7041670  77.1721780  28.7357220  49.0126180
  81.7913990  29.0845880  30.9246260  82.5842600  29.3734710  30.4728050
  81.2718340  28.6538050  30.2458740  86.5234590  25.2041510  48.2381680
  85.9172750  25.2273110  47.4977430  86.2188700  24.4724550  48.7748930
  87.9534960  28.9321800  46.8491090  88.9056710  28.8479820  46.7991330
  87.8063180  29.5963510  47.5224880  75.4067770  21.5835100  47.2342320
  75.9106790  21.0042380  47.8058550  74.6675190  21.8675330  47.7718690
  82.3091390  24.3049290  30.7888610  82.2042030  23.6901640  31.5149990
  82.1415610  23.7815180  30.0051620  82.4605710  22.9906090  46.7677840
  81.6951380  23.5591090  46.6832510  82.6421670  22.6982300  45.8746070
  85.5494120  23.3669320  31.3930600  85.0004220  23.8138620  32.0373340
  86.1713380  22.8618570  31.9168270  89.6029060  24.7211420  47.3252860
  90.3438530  25.0587180  46.8220320  88.8401740  24.8903480  46.7722630
  77.4390850  19.7264690  48.1292390  77.4796190  19.4278560  49.0377620
  78.2936350  20.1272300  47.9699910  81.2169240  22.3260240  33.2895900
  81.6385660  22.1600110  34.1327290  81.3420080  21.5160470  32.7951040
  79.3796660  18.3056790  46.0966880  78.8493120  17.8147740  45.4690220
  80.0484730  18.7340990  45.5624810  83.7296880  21.3497850  30.5373000
  84.2502540  20.6346870  30.1714150  84.3765280  21.9883720  30.8373510
  88.2774720  22.7726250  45.8608070  88.6915740  22.9271330  46.7098490
  87.3425720  22.8981470  46.0233850  88.7496890  20.1122410  47.8647220
  89.3317660  19.3574730  47.7767700  88.9258660  20.6429850  47.0878700
  79.8668960  15.2719160  46.1764170  79.7725830  14.6539910  45.4515040
  79.2866350  15.9985450  45.9494080  82.6330400  13.8292400  43.2091560
  82.1847700  13.8516660  42.3637110  81.9995600  13.4311420  43.8061860
  83.0389950  22.7246730  43.8304000  83.4578060  23.5679460  43.6580240
  82.1198580  22.8618770  43.6010780  85.3753850  20.4562910  45.2141840
  85.4950060  19.8604050  45.9536680  86.2347850  20.4932600  44.7943140
  87.7141750  21.0100100  43.7904350  87.1876970  21.5342720  43.1869490
  88.0573090  21.6427490  44.4214080  80.1128140  18.3993470  30.2354060
  79.9117200  17.5360830  30.5967400  79.9420190  18.3126830  29.2975660
  80.8897370  29.0299740  44.9461730  80.3518460  29.7545800  44.6270430
  81.1431330  28.5530080  44.1559070  82.1422620  16.9984260  46.4717660
  82.7322310  16.6900110  47.1595480  81.3242860  16.5264010  46.6277560
  86.9616050  16.6150070  46.7050680  86.2731570  15.9531610  46.6400670
  87.6822070  16.1688340  47.1499140  87.5916450  13.2101700  32.7640940
  87.8718740  12.3669600  33.1200360  86.8182180  13.4424810  33.2779690
  78.9110940  15.4994090  30.2231940  79.2136840  15.5061520  29.3151090
  79.6505530  15.1491950  30.7199600  83.7459580  30.2650950  45.2048380
  83.6718280  31.1686090  45.5120750  82.8438420  29.9462850  45.1770450
  82.1295870  14.4428710  31.2088140  81.7817870  13.7652700  30.6290590
  82.3308640  13.9818220  32.0231530  84.2944910  29.4309460  32.8274740
  85.1895700  29.7694430  32.8493500  84.3262540  28.7088870  32.1999020
  77.9341070  24.8036510  31.0561740  78.3715940  25.3466180  31.7119320
  78.4188800  23.9783460  31.0658080  75.1486870  27.5925540  38.5082000
  75.4789880  26.7246600  38.2760640  75.5777870  27.7984060  39.3386960
  79.7448790  25.9234550  36.1683970  79.4444330  25.7999520  37.0687880
  79.6386280  25.0643140  35.7599700  75.6377080  28.4596130  41.2463630
  75.2008070  28.6396930  42.0787780  76.2054760  29.2170750  41.1045350
  75.4701510  20.9716360  37.6052510  74.8150350  20.7028000  36.9612210
  76.3079460  20.8620840  37.1554490  89.9590900  24.6865110  43.6317100
  89.1450740  25.1162270  43.8942890  90.3665100  25.2983520  43.0186150
  88.4191950  15.7657650  31.8271000  88.8376830  15.5788630  30.9867660
  88.1128010  14.9136700  32.1373930  76.5077440  21.3568930  42.1455850
  76.8750480  21.2696330  43.0251870  75.9388260  20.5935480  42.0462710
  76.0593440  18.2678020  46.0514270  75.1649490  18.2344780  46.3907980
  76.5990990  18.4664810  46.8165520  89.7469370  15.0509740  47.9366020
  90.6239550  15.0593140  48.3200020  89.7590210  14.3140580  47.3258370
  74.6839590  18.1815290  33.5477840  73.7803670  18.4445490  33.3729500
  75.1680210  18.4526460  32.7677800  77.2266800  17.2380830  31.4572220
  77.9358500  16.8164050  30.9719500  76.5106740  17.3056060  30.8255570
  76.8740960  13.2920160  30.4974870  77.5969090  13.8329100  30.8156090
  77.1465480  13.0183580  29.6216410  76.5633150  12.5426350  40.3997490
  77.2109340  11.9923730  39.9592650  76.9834990  12.7969500  41.2213300
  90.0166950  29.4383710  37.1585370  90.6126020  29.1168280  36.4819790
  90.2745100  28.9655530  37.9498640  76.3165150  12.6982020  43.1422810
  75.9679970  13.1545840  43.9080990  75.9852850  11.8039150  43.2245240
  77.9229520  25.8701620  47.3076000  77.8799150  25.4994530  48.1890460
  78.0540530  26.8079190  47.4477820  81.6235550  27.4261210  42.9085720
  81.3826910  27.6935770  42.0216240  82.5638190  27.5966940  42.9636580
  83.8289970  13.8893900  46.6642230  83.7678860  14.4815730  47.4137640
  84.7690350  13.7819860  46.5192490  86.4664530  13.5463960  46.3034520
  87.0804940  13.8643250  45.6415600  87.0114090  13.0612550  46.9230380
  76.9885790  12.2258220  46.4173580  77.5368780  12.0446270  45.6539690
  77.0541100  11.4352330  46.9529890  77.7617550  28.8163870  44.4273780
  77.1677870  28.6848570  45.1663820  77.7541390  27.9802010  43.9615880
  87.2072570  12.1096100  42.6303810  86.3332410  12.4431210  42.4276740
  87.0983320  11.6369280  43.4555680  88.1144550  14.3166970  44.0145530
  87.7857910  13.5018730  43.6347260  89.0626850  14.2736780  43.8911220
  90.5679160  30.0879010  40.9883100  90.1082130  30.8394820  40.6141120
  89.9391620  29.3685480  40.9297900  77.3929780  26.1822250  43.3781820
  76.6663840  25.5627540  43.3107770  77.4538930  26.5762860  42.5079900
  80.9974880  28.3967250  40.1631230  81.5139900  27.7854610  39.6379490
  81.6472260  28.8996030  40.6542240  83.7370380  29.2875740  40.9900210
  84.0248190  29.0330040  40.1133220  84.2493600  28.7353100  41.5805780
  84.9547390  13.0265940  41.5696720  84.1719180  13.5011440  41.8493480
  84.6610320  12.1220770  41.4609900  89.5068460  13.7289040  39.6145810
  89.9476550  13.6734140  38.7667410  89.2376050  14.6447050  39.6855990
  75.6759780  29.4996640  36.5878580  75.5081820  28.8667320  37.2860470
  74.8094290  29.7056040  36.2372770  76.2987800  13.3313420  34.0910440
  77.0567160  13.4442300  33.5174470  75.8364970  14.1682620  34.0453870
  82.8401610  15.4452690  37.0812750  82.0276120  15.0709580  36.7408630
  83.3443250  14.6897770  37.3833940  87.3426590  12.1095140  38.3195820
  87.9455960  12.6815350  38.7944340  86.6019580  12.6734580  38.0969720
  90.4861190  12.5116700  33.5936100  90.6811820  13.4100150  33.8603530
  89.6991060  12.2803780  34.0869050  77.2822480  28.1929870  34.0328720
  76.7570100  28.5737900  33.3290680  77.2067060  28.8180640  34.7538430
  78.6712950  13.8577470  32.6312410  79.2005710  13.0707270  32.5020360
  79.3041270  14.5368660  32.8647940  80.8650790  13.5952610  35.6857800
  80.2353530  12.8939920  35.8527930  80.3255930  14.3556740  35.4690960
  83.8042740  30.2091840  48.3568410  84.7310050  29.9736110  48.4004370
  83.7893170  31.0363840  47.8754440  80.9906350  12.8736590  48.1210290
  80.7090620  13.3770190  47.3571110  81.3726050  12.0758340  47.7552420
  79.8815450  30.1412250  32.9077970  80.6134270  29.8571530  32.3601860
  80.1409120  29.9025530  33.7977350  79.0430240  26.2576980  32.9124300
  78.4139120  26.7262080  33.4610130  79.1578070  25.4126200  33.3470490
  87.5921810  12.2890170  48.6990760  87.4787260  12.6084780  49.5942280
  88.4091550  12.6902680  48.4028040  86.4979960  20.3082640  19.0625500
  86.4174010  19.3937250  18.7917210  86.0844380  20.8049710  18.3565210
  84.6298000  22.0861660  20.9434770  83.8540100  21.6062100  21.2333340
  85.2810930  21.4067310  20.7690930  78.6463830  22.3981470  21.8210530
  77.8148710  22.1430180  22.2207040  79.2544810  22.4692240  22.5568450
  88.6505430  26.4921850  19.7233900  88.1886960  25.7209090  20.0521070
  89.4630980  26.5187920  20.2286350  78.6265090  26.4321560  22.0168550
  78.9293130  25.5419300  21.8378770  79.3708680  26.9891780  21.7890800
  77.0555780  17.3583360  15.6052920  76.1672480  17.6999330  15.5032800
  77.3396970  17.1583680  14.7133750  75.0188790  19.9589010  21.4892620
  75.5904900  19.1911210  21.4896260  75.0190330  20.2577770  20.5799230
  84.8768740  28.7779860  19.3437890  84.2580180  29.2337360  18.7732330
  85.7320520  28.9331320  18.9427590  84.0706990  24.7618850  20.9504930
  84.0015270  23.8208790  20.7894060  84.8326850  24.8520260  21.5227500
  76.2613660  15.3673370  23.2761550  76.0816500  14.4699120  23.5564310
  75.8593740  15.9145240  23.9508500  85.1012160  17.5689230  21.1773860
  85.4776980  16.6961110  21.0647530  85.0031670  17.9047930  20.2864300
  79.2317170  15.9414860  16.6391300  79.3383920  16.8418590  16.9460060
  78.3209530  15.8932830  16.3485950  88.8836280  15.0639670  18.1102200
  89.7045900  14.5736240  18.1527680  88.9170360  15.6537330  18.8634040
  76.8800330  17.8633870  21.8843890  77.5610440  18.1272240  22.5031290
  76.5648380  17.0234740  22.2181900  81.0724900  18.9101230  20.9716480
  81.5803120  19.4082200  21.6121500  81.6038140  18.1336430  20.7955840
  79.3561000  13.5499790  25.2379900  79.3579440  14.0672180  24.4325800
  78.5265310  13.0729970  25.2149830  85.7432090  23.6619100  16.7369800
  85.1249360  24.1268550  16.1732520  86.2555340  24.3546580  17.1539310
  80.6063850  23.1894970  23.4153400  80.2733230  23.8163890  24.0574470
  80.7830530  23.7156850  22.6355070  89.1197760  17.0040050  20.8829740
  88.4153330  17.2924940  21.4632850  89.4809920  17.8140160  20.5229300
  79.0376330  15.2609750  23.2450350  79.3793140  16.1051800  22.9504220
  78.0992140  15.4093490  23.3615690  79.8182950  25.1575770  25.2302580
  80.4356950  25.8326850  24.9487030  78.9576070  25.5663750  25.1390080
  75.1115290  24.3475630  14.1109430  74.7343270  24.8362730  13.3794330
  75.3688360  25.0200910  14.7415960  82.7204220  12.7492020  19.5694940
  83.0279200  12.1938910  18.8530440  81.7904920  12.8836480  19.3867930
  88.2719280  28.4659310  21.8602400  88.2846440  28.0621600  20.9924660
  87.7194500  29.2406600  21.7563830  89.5664700  25.1875530  16.9492570
  89.4561030  24.2449860  17.0741990  89.5632950  25.5491170  17.8355330
  87.6704720  23.3689150  23.1885010  88.0873510  23.1549260  22.3538470
  88.3944540  23.6261940  23.7593630  85.1084980  20.8140850  16.3055060
  84.1814260  20.7478230  16.5343530  85.2609800  21.7520980  16.1910300
  85.0954060  17.0857850  13.3022220  84.1557730  17.2471810  13.3874680
  85.4137320  17.8043530  12.7558210  89.1382270  22.3761150  16.8090310
  88.5194690  22.0380700  16.1616610  89.1206720  21.7320910  17.5169500
  88.5808830  18.5545690  24.2256120  88.1680010  19.3799400  24.4796110
  87.8484780  17.9690730  24.0332480  80.7141620  21.3405590  19.0874790
  80.3098620  20.6282840  18.5920690  80.8004740  20.9958830  19.9762830
  81.1823320  25.0273150  21.2514000  80.8851610  24.4218620  20.5721780
  82.1323140  25.0650460  21.1403360  79.4270240  18.1148800  22.8673830
  79.9784830  18.2244140  22.0927080  79.9413750  18.4886400  23.5829060
  89.2708930  28.6005020  24.9137100  88.7939490  29.4077210  24.7209710
  88.5870720  27.9483350  25.0663310  80.2741750  24.7654840  27.9021800
  79.3770280  24.9894810  28.1495200  80.2994620  24.8889780  26.9533200
  87.3146970  21.6147960  13.8163060  87.7540250  20.7770390  13.6700880
  88.0275390  22.2477360  13.9027200  79.1012970  21.6368160  26.4779170
  78.9620740  22.5090960  26.8466570  78.2194330  21.2940970  26.3327110
  85.4242350  26.5544030  17.7844300  85.8638260  27.2968360  17.3699690
  85.3629240  26.7970600  18.7083260  80.8993320  27.5789860  28.6864320
  80.8708750  27.9832810  27.8192750  80.7358290  26.6500220  28.5235920
  77.4146250  20.2350570  16.5881440  77.2943850  20.9612660  15.9762710
  77.1047140  19.4653480  16.1109350  75.0531620  23.4065710  22.3950080
  75.1312040  23.5414480  21.4505800  75.6673300  22.6981600  22.5878200
  76.2979250  25.1065900  18.8056260  75.8907330  25.2480490  17.9509860
  77.1892260  24.8226060  18.6027470  86.1158130  29.2557810  25.7123310
  86.6302800  29.1665820  26.5145740  85.2727210  29.6017510  26.0051220
  88.0912530  29.5413150  15.1407310  87.9313670  29.2516090  16.0389140
  87.9259240  28.7653280  14.6052540  80.5700910  29.3211680  16.9178930
  80.3943390  28.4047220  16.7046730  79.7156650  29.6798970  17.1576730
  87.7938660  27.0500710  13.7005310  87.1003820  27.0478000  13.0407590
  88.5361520  26.6260030  13.2699480  87.3588590  28.6763420  17.7753800
  87.8145540  27.8952800  18.0892420  87.6981110  29.3870240  18.3194980
  75.1091140  24.4479880  24.9344540  75.2722180  23.9785240  24.1163910
  75.5743590  23.9403440  25.5993380  79.8809910  13.5785640  19.9705110
  79.4378060  14.3595180  19.6389630  80.4394900  13.9015530  20.6776050
  84.1679720  16.4454160  25.5740430  83.7059090  16.6537180  26.3860370
  83.7657830  15.6313510  25.2711100  89.1684230  17.6663110  26.7037090
  88.3177820  17.3668860  27.0246160  89.0086020  17.9105120  25.7920910
  86.2633940  19.1664860  28.8035880  86.5887350  18.3328610  28.4638110
  87.0514270  19.6893380  28.9514210  82.9968730  13.1996340  14.8510940
  82.3722910  13.1956210  15.5764250  82.9098850  12.3327300  14.4546910
  81.9185810  14.1232970  21.8294710  82.2158140  15.0295800  21.7486730
  82.4671370  13.6351750  21.2154280  79.6724130  18.7019210  17.6986360
  79.4465050  18.4856380  18.6032980  78.8916660  19.1347670  17.3532330
  86.9021890  18.7082580  16.2977010  86.3030780  19.4318380  16.1140630
  87.4501500  18.6459360  15.5153460  82.1123340  19.6004790  28.3646630
  82.0166940  18.6599520  28.2147030  82.9555320  19.8219860  27.9694700
  85.5086760  17.3446120  18.3280290  85.9016330  17.6618320  17.5148980
  85.8703610  16.4658000  18.4424810  77.2433880  16.0118460  26.5180410
  76.8497270  16.8593670  26.7253190  76.5552280  15.3744830  26.7089050
  83.8178930  16.0953430  29.5877150  83.1277250  15.9025630  30.2223240
  84.5611230  16.3788070  30.1201450  74.5450930  13.9346920  20.5510490
  74.2563980  14.5049780  21.2635470  75.2896690  13.4551370  20.9141720
  74.7321160  17.8767040  11.7613210  74.6495830  18.8197800  11.9028200
  74.3804220  17.7341950  10.8825560  86.0941900  19.9351870  22.4231070
  85.3623020  20.4438680  22.7721170  85.6966240  19.1181850  22.1219850
  82.5319290  16.6106070  20.8283560  82.5355350  16.1696020  19.9788100
  83.4270410  16.9323400  20.9355380  78.3821670  16.4932560  19.7877770
  78.0421720  16.9707790  20.5444820  77.6198990  16.0397680  19.4278870
  82.5939440  17.6118150  13.8190320  82.7152260  17.5704630  14.7676140
  82.2087950  18.4742300  13.6637050  86.5567810  15.3885550  21.8354010
  86.5740550  15.8394200  22.6795860  86.3083390  14.4891190  22.0487450
  81.6060940  19.9219290  13.2173620  81.0377840  19.4737540  12.5909530
  82.3149940  20.2812070  12.6838770  89.9838560  12.8017730  27.6740390
  90.3084330  12.0707390  28.1998370  90.0195070  12.4831370  26.7721380
  76.6830120  23.8231310  27.0940350  76.2984910  23.1824980  27.6923310
  76.9942310  24.5267430  27.6635080  82.8327260  20.6707850  22.5748970
  83.1997390  20.1966420  23.3210310  82.6432320  21.5449420  22.9157310
  75.6967750  15.4151540  18.7042440  75.4114670  15.0507210  19.5421060
  75.6346610  14.6832000  18.0905580  80.6226630  19.7116490  24.8933180
  80.3183700  20.5908470  25.1183540  81.5773090  19.7716280  24.9290620
  79.1508420  23.9177480  15.4900030  78.3770680  23.3775100  15.3298750
  79.8803050  23.3984090  15.1517790  89.9096400  22.9142840  21.2826420
  90.6295520  23.4098130  20.8922530  89.7078220  22.2360730  20.6380290
  85.3706340  14.3080800  15.4255810  84.5570950  13.8093970  15.3501120
  85.1768290  15.1479050  15.0092160  85.2915200  22.9851900  27.1695420
  85.2252510  22.0647570  26.9153010  84.6620340  23.0827340  27.8840060
  88.0854730  18.6800450  13.7217970  88.9734350  18.9917680  13.5469310
  88.0559820  17.8072700  13.3298550  79.1945820  23.5857860  19.1278840
  79.7124490  22.7826120  19.0735730  78.7429840  23.5237000  19.9695670
  84.0815320  24.8524140  14.4006140  84.4231020  25.5966370  13.9049460
  83.2528030  25.1655260  14.7630970  76.6790360  20.5519230  26.0404540
  76.3205300  21.2173080  26.6277880  76.3844920  19.7202780  26.4117160
  79.8803480  21.0103470  28.9244090  79.5803620  21.1560650  28.0271910
  80.6514720  20.4508760  28.8317480  85.2231930  25.8072470  26.9199220
  85.2376470  24.8753430  26.7018130  84.5157030  25.8932230  27.5588990
  86.9642730  24.1739980  19.7651650  87.3166550  23.5768110  19.1053020
  86.0805060  23.8484210  19.9359900  83.0506010  24.9337670  17.1722060
  83.7377140  25.4806880  17.5529650  82.2638430  25.4778400  17.2071670
  75.1898410  20.5510490  12.6639140  76.0593260  20.8335290  12.9475060
  74.6988730  21.3646360  12.5487950  82.3533220  21.9383700  16.7847420
  82.8096000  22.7488950  17.0107610  82.0021430  21.6206840  17.6165910
  84.6565830  27.4490040  24.0139720  85.3008050  27.6549420  24.6913140
  85.0195270  26.6878440  23.5610570  78.2545000  12.2821350  17.2569940
  78.1259630  12.2739250  18.2054860  77.4307020  12.6204440  16.9060950
  85.9297910  25.4522390  22.7317170  86.5720140  24.7515550  22.8449340
  86.4547260  26.2320830  22.5514060  89.7753630  25.7371010  12.4556310
  89.5491210  25.0201450  13.0480950  89.3849830  25.4883450  11.6178060
  87.7035530  26.2517290  25.9353230  88.0391770  26.8383980  26.6131150
  86.7835870  26.1210000  26.1651020  75.5569660  29.7637870  13.2300770
  75.9167300  30.3627210  12.5758040  75.4162000  30.3097760  14.0035800
  75.2538930  14.0412470  26.7176640  74.5397450  14.2409390  27.3229250
  75.6733970  13.2652040  27.0891440  89.3569880  23.6542950  14.1170470
  89.0691580  24.1155640  14.9048350  90.1522050  23.1940720  14.3854690
  75.5411520  28.0292730  27.7043170  75.6502640  27.0887470  27.5638560
  74.8892080  28.2947480  27.0556900  83.5324110  26.3008620  29.1041290
  83.2120980  25.5817860  29.6486980  82.8582470  26.9763690  29.1777350
  81.5738280  27.1469070  14.0474440  81.5648380  27.8798760  13.4318950
  80.6536640  26.9000650  14.1401400  77.1744920  22.3683960  14.7921200
  76.5672870  23.1082860  14.8016500  77.6494270  22.4583320  13.9659400
  86.7477710  16.5334780  24.4678090  87.1158530  15.7129990  24.7957660
  85.8875910  16.5936670  24.8833740  90.1139740  15.4891720  15.2765650
  89.4852900  15.5937390  14.5623880  89.6191660  15.7088500  16.0659530
  84.5597880  27.2097310  12.7099630  84.6609860  27.0061300  11.7801610
  83.6599620  26.9555590  12.9147410  82.0823770  17.7677670  16.6923530
  81.3739920  18.2364010  17.1337140  82.3668250  17.1099680  17.3268720
  83.7079700  19.1874370  24.6916060  84.2064950  19.6620190  25.3567910
  83.8502650  18.2637890  24.8986090  86.1139200  14.4928330  18.1319320
  85.9906980  14.5114460  17.1828830  87.0623760  14.5407270  18.2517720
  83.2015990  29.7283630  17.4047300  83.4557490  29.6905020  16.4826670
  82.2528470  29.6016960  17.3975550  80.2858790  16.0762750  14.0674240
  81.1349320  16.5132900  14.0014430  79.9190060  16.3883010  14.8946300
  89.2068570  20.6475510  18.9805810  88.2658710  20.6625740  19.1553500
  89.5212640  19.8611470  19.4266110  79.1850210  22.3295110  12.5409770
  79.9513480  22.2176470  13.1035200  79.2624900  21.6333080  11.8886540
  77.8796970  19.7620180  13.2242660  77.9600560  18.8147690  13.3360060
  78.7716720  20.0927060  13.3303320  78.6811680  29.9115570  20.3277200
  79.4174160  29.3631030  20.5985770  79.0652600  30.7771580  20.1883190
  75.5657160  25.9789140  16.2018710  74.6396940  26.2210280  16.1924120
  76.0313590  26.8063400  16.0803460  77.6869960  29.0961640  29.5162780
  78.4882690  29.4173690  29.9298180  77.1721780  28.7357220  30.2382690
  81.7913990  29.0845880  12.1502770  82.5842600  29.3734710  11.6984560
  81.2718340  28.6538050  11.4715250  86.5234590  25.2041510  29.4638190
  85.9172750  25.2273110  28.7233940  86.2188700  24.4724550  30.0005440
  87.9534960  28.9321800  28.0747600  88.9056710  28.8479820  28.0247840
  87.8063180  29.5963510  28.7481390  75.4067770  21.5835100  28.4598830
  75.9106790  21.0042380  29.0315060  74.6675190  21.8675330  28.9975200
  82.3091390  24.3049290  12.0145120  82.2042030  23.6901640  12.7406500
  82.1415610  23.7815180  11.2308130  82.4605710  22.9906090  27.9934350
  81.6951380  23.5591090  27.9089020  82.6421670  22.6982300  27.1002580
  85.5494120  23.3669320  12.6187110  85.0004220  23.8138620  13.2629850
  86.1713380  22.8618570  13.1424780  89.6029060  24.7211420  28.5509370
  90.3438530  25.0587180  28.0476830  88.8401740  24.8903480  27.9979140
  77.4390850  19.7264690  29.3548900  77.4796190  19.4278560  30.2634130
  78.2936350  20.1272300  29.1956420  81.2169240  22.3260240  14.5152410
  81.6385660  22.1600110  15.3583800  81.3420080  21.5160470  14.0207550
  79.3796660  18.3056790  27.3223390  78.8493120  17.8147740  26.6946730
  80.0484730  18.7340990  26.7881320  83.7296880  21.3497850  11.7629510
  84.2502540  20.6346870  11.3970660  84.3765280  21.9883720  12.0630020
  88.2774720  22.7726250  27.0864580  88.6915740  22.9271330  27.9355000
  87.3425720  22.8981470  27.2490360  88.7496890  20.1122410  29.0903730
  89.3317660  19.3574730  29.0024210  88.9258660  20.6429850  28.3135210
  79.8668960  15.2719160  27.4020680  79.7725830  14.6539910  26.6771550
  79.2866350  15.9985450  27.1750590  82.6330400  13.8292400  24.4348070
  82.1847700  13.8516660  23.5893620  81.9995600  13.4311420  25.0318370
  83.0389950  22.7246730  25.0560510  83.4578060  23.5679460  24.8836750
  82.1198580  22.8618770  24.8267290  85.3753850  20.4562910  26.4398350
  85.4950060  19.8604050  27.1793190  86.2347850  20.4932600  26.0199650
  87.7141750  21.0100100  25.0160860  87.1876970  21.5342720  24.4126000
  88.0573090  21.6427490  25.6470590  80.1128140  18.3993470  11.4610570
  79.9117200  17.5360830  11.8223910  79.9420190  18.3126830  10.5232170
  80.8897370  29.0299740  26.1718240  80.3518460  29.7545800  25.8526940
  81.1431330  28.5530080  25.3815580  82.1422620  16.9984260  27.6974170
  82.7322310  16.6900110  28.3851990  81.3242860  16.5264010  27.8534070
  86.9616050  16.6150070  27.9307190  86.2731570  15.9531610  27.8657180
  87.6822070  16.1688340  28.3755650  87.5916450  13.2101700  13.9897450
  87.8718740  12.3669600  14.3456870  86.8182180  13.4424810  14.5036200
  78.9110940  15.4994090  11.4488450  79.2136840  15.5061520  10.5407600
  79.6505530  15.1491950  11.9456110  83.7459580  30.2650950  26.4304890
  83.6718280  31.1686090  26.7377260  82.8438420  29.9462850  26.4026960
  82.1295870  14.4428710  12.4344650  81.7817870  13.7652700  11.8547100
  82.3308640  13.9818220  13.2488040  84.2944910  29.4309460  14.0531250
  85.1895700  29.7694430  14.0750010  84.3262540  28.7088870  13.4255530
  77.9341070  24.8036510  12.2818250  78.3715940  25.3466180  12.9375830
  78.4188800  23.9783460  12.2914590  75.1486870  27.5925540  19.7338510
  75.4789880  26.7246600  19.5017150  75.5777870  27.7984060  20.5643470
  79.7448790  25.9234550  17.3940480  79.4444330  25.7999520  18.2944390
  79.6386280  25.0643140  16.9856210  75.6377080  28.4596130  22.4720140
  75.2008070  28.6396930  23.3044290  76.2054760  29.2170750  22.3301860
  75.4701510  20.9716360  18.8309020  74.8150350  20.7028000  18.1868720
  76.3079460  20.8620840  18.3811000  89.9590900  24.6865110  24.8573610
  89.1450740  25.1162270  25.1199400  90.3665100  25.2983520  24.2442660
  88.4191950  15.7657650  13.0527510  88.8376830  15.5788630  12.2124170
  88.1128010  14.9136700  13.3630440  76.5077440  21.3568930  23.3712360
  76.8750480  21.2696330  24.2508380  75.9388260  20.5935480  23.2719220
  76.0593440  18.2678020  27.2770780  75.1649490  18.2344780  27.6164490
  76.5990990  18.4664810  28.0422030  89.7469370  15.0509740  29.1622530
  90.6239550  15.0593140  29.5456530  89.7590210  14.3140580  28.5514880
  74.6839590  18.1815290  14.7734350  73.7803670  18.4445490  14.5986010
  75.1680210  18.4526460  13.9934310  77.2266800  17.2380830  12.6828730
  77.9358500  16.8164050  12.1976010  76.5106740  17.3056060  12.0512080
  76.8740960  13.2920160  11.7231380  77.5969090  13.8329100  12.0412600
  77.1465480  13.0183580  10.8472920  76.5633150  12.5426350  21.6254000
  77.2109340  11.9923730  21.1849160  76.9834990  12.7969500  22.4469810
  90.0166950  29.4383710  18.3841880  90.6126020  29.1168280  17.7076300
  90.2745100  28.9655530  19.1755150  76.3165150  12.6982020  24.3679320
  75.9679970  13.1545840  25.1337500  75.9852850  11.8039150  24.4501750
  77.9229520  25.8701620  28.5332510  77.8799150  25.4994530  29.4146970
  78.0540530  26.8079190  28.6734330  81.6235550  27.4261210  24.1342230
  81.3826910  27.6935770  23.2472750  82.5638190  27.5966940  24.1893090
  83.8289970  13.8893900  27.8898740  83.7678860  14.4815730  28.6394150
  84.7690350  13.7819860  27.7449000  86.4664530  13.5463960  27.5291030
  87.0804940  13.8643250  26.8672110  87.0114090  13.0612550  28.1486890
  76.9885790  12.2258220  27.6430090  77.5368780  12.0446270  26.8796200
  77.0541100  11.4352330  28.1786400  77.7617550  28.8163870  25.6530290
  77.1677870  28.6848570  26.3920330  77.7541390  27.9802010  25.1872390
  87.2072570  12.1096100  23.8560320  86.3332410  12.4431210  23.6533250
  87.0983320  11.6369280  24.6812190  88.1144550  14.3166970  25.2402040
  87.7857910  13.5018730  24.8603770  89.0626850  14.2736780  25.1167730
  90.5679160  30.0879010  22.2139610  90.1082130  30.8394820  21.8397630
  89.9391620  29.3685480  22.1554410  77.3929780  26.1822250  24.6038330
  76.6663840  25.5627540  24.5364280  77.4538930  26.5762860  23.7336410
  80.9974880  28.3967250  21.3887740  81.5139900  27.7854610  20.8636000
  81.6472260  28.8996030  21.8798750  83.7370380  29.2875740  22.2156720
  84.0248190  29.0330040  21.3389730  84.2493600  28.7353100  22.8062290
  84.9547390  13.0265940  22.7953230  84.1719180  13.5011440  23.0749990
  84.6610320  12.1220770  22.6866410  89.5068460  13.7289040  20.8402320
  89.9476550  13.6734140  19.9923920  89.2376050  14.6447050  20.9112500
  75.6759780  29.4996640  17.8135090  75.5081820  28.8667320  18.5116980
  74.8094290  29.7056040  17.4629280  76.2987800  13.3313420  15.3166950
  77.0567160  13.4442300  14.7430980  75.8364970  14.1682620  15.2710380
  82.8401610  15.4452690  18.3069260  82.0276120  15.0709580  17.9665140
  83.3443250  14.6897770  18.6090450  87.3426590  12.1095140  19.5452330
  87.9455960  12.6815350  20.0200850  86.6019580  12.6734580  19.3226230
  90.4861190  12.5116700  14.8192610  90.6811820  13.4100150  15.0860040
  89.6991060  12.2803780  15.3125560  77.2822480  28.1929870  15.2585230
  76.7570100  28.5737900  14.5547190  77.2067060  28.8180640  15.9794940
  78.6712950  13.8577470  13.8568920  79.2005710  13.0707270  13.7276870
  79.3041270  14.5368660  14.0904450  80.8650790  13.5952610  16.9114310
  80.2353530  12.8939920  17.0784440  80.3255930  14.3556740  16.6947470
  83.8042740  30.2091840  29.5824920  84.7310050  29.9736110  29.6260880
  83.7893170  31.0363840  29.1010950  80.9906350  12.8736590  29.3466800
  80.7090620  13.3770190  28.5827620  81.3726050  12.0758340  28.9808930
  79.8815450  30.1412250  14.1334480  80.6134270  29.8571530  13.5858370
  80.1409120  29.9025530  15.0233860  79.0430240  26.2576980  14.1380810
  78.4139120  26.7262080  14.6866640  79.1578070  25.4126200  14.5727000
  87.5921810  12.2890170  29.9247270  87.4787260  12.6084780  30.8198790
  88.4091550  12.6902680  29.6284550  84.6298000  22.0861660   2.1691280
  83.8540100  21.6062100   2.4589850  85.2810930  21.4067310   1.9947440
  78.6463830  22.3981470   3.0467040  77.8148710  22.1430180   3.4463550
  79.2544810  22.4692240   3.7824960  78.6265090  26.4321560   3.2425060
  78.9293130  25.5419300   3.0635280  79.3708680  26.9891780   3.0147310
  75.0188790  19.9589010   2.7149130  75.5904900  19.1911210   2.7152770
  75.0190330  20.2577770   1.8055740  84.0706990  24.7618850   2.1761440
  84.0015270  23.8208790   2.0150570  84.8326850  24.8520260   2.7484010
  76.2613660  15.3673370   4.5018060  76.0816500  14.4699120   4.7820820
  75.8593740  15.9145240   5.1765010  76.8800330  17.8633870   3.1100400
  77.5610440  18.1272240   3.7287800  76.5648380  17.0234740   3.4438410
  81.0724900  18.9101230   2.1972990  81.5803120  19.4082200   2.8378010
  81.6038140  18.1336430   2.0212350  79.3561000  13.5499790   6.4636410
  79.3579440  14.0672180   5.6582310  78.5265310  13.0729970   6.4406340
  80.6063850  23.1894970   4.6409910  80.2733230  23.8163890   5.2830980
  80.7830530  23.7156850   3.8611580  89.1197760  17.0040050   2.1086250
  88.4153330  17.2924940   2.6889360  89.4809920  17.8140160   1.7485810
  79.0376330  15.2609750   4.4706860  79.3793140  16.1051800   4.1760730
  78.0992140  15.4093490   4.5872200  79.8182950  25.1575770   6.4559090
  80.4356950  25.8326850   6.1743540  78.9576070  25.5663750   6.3646590
  88.2719280  28.4659310   3.0858910  88.2846440  28.0621600   2.2181170
  87.7194500  29.2406600   2.9820340  87.6704720  23.3689150   4.4141520
  88.0873510  23.1549260   3.5794980  88.3944540  23.6261940   4.9850140
  88.5808830  18.5545690   5.4512630  88.1680010  19.3799400   5.7052620
  87.8484780  17.9690730   5.2588990  81.1823320  25.0273150   2.4770510
  80.8851610  24.4218620   1.7978290  82.1323140  25.0650460   2.3659870
  79.4270240  18.1148800   4.0930340  79.9784830  18.2244140   3.3183590
  79.9413750  18.4886400   4.8085570  89.2708930  28.6005020   6.1393610
  88.7939490  29.4077210   5.9466220  88.5870720  27.9483350   6.2919820
  80.2741750  24.7654840   9.1278310  79.3770280  24.9894810   9.3751710
  80.2994620  24.8889780   8.1789710  79.1012970  21.6368160   7.7035680
  78.9620740  22.5090960   8.0723080  78.2194330  21.2940970   7.5583620
  80.8993320  27.5789860   9.9120830  80.8708750  27.9832810   9.0449260
  80.7358290  26.6500220   9.7492430  75.0531620  23.4065710   3.6206590
  75.1312040  23.5414480   2.6762310  75.6673300  22.6981600   3.8134710
  86.1158130  29.2557810   6.9379820  86.6302800  29.1665820   7.7402250
  85.2727210  29.6017510   7.2307730  75.1091140  24.4479880   6.1601050
  75.2722180  23.9785240   5.3420420  75.5743590  23.9403440   6.8249890
  84.1679720  16.4454160   6.7996940  83.7059090  16.6537180   7.6116880
  83.7657830  15.6313510   6.4967610  89.1684230  17.6663110   7.9293600
  88.3177820  17.3668860   8.2502670  89.0086020  17.9105120   7.0177420
  86.2633940  19.1664860  10.0292390  86.5887350  18.3328610   9.6894620
  87.0514270  19.6893380  10.1770720  81.9185810  14.1232970   3.0551220
  82.2158140  15.0295800   2.9743240  82.4671370  13.6351750   2.4410790
  82.1123340  19.6004790   9.5903140  82.0166940  18.6599520   9.4403540
  82.9555320  19.8219860   9.1951210  77.2433880  16.0118460   7.7436920
  76.8497270  16.8593670   7.9509700  76.5552280  15.3744830   7.9345560
  83.8178930  16.0953430  10.8133660  83.1277250  15.9025630  11.4479750
  84.5611230  16.3788070  11.3457960  74.5450930  13.9346920   1.7767000
  74.2563980  14.5049780   2.4891980  75.2896690  13.4551370   2.1398230
  86.0941900  19.9351870   3.6487580  85.3623020  20.4438680   3.9977680
  85.6966240  19.1181850   3.3476360  86.5567810  15.3885550   3.0610520
  86.5740550  15.8394200   3.9052370  86.3083390  14.4891190   3.2743960
  89.9838560  12.8017730   8.8996900  90.3084330  12.0707390   9.4254880
  90.0195070  12.4831370   7.9977890  76.6830120  23.8231310   8.3196860
  76.2984910  23.1824980   8.9179820  76.9942310  24.5267430   8.8891590
  82.8327260  20.6707850   3.8005480  83.1997390  20.1966420   4.5466820
  82.6432320  21.5449420   4.1413820  80.6226630  19.7116490   6.1189690
  80.3183700  20.5908470   6.3440050  81.5773090  19.7716280   6.1547130
  89.9096400  22.9142840   2.5082930  90.6295520  23.4098130   2.1179040
  89.7078220  22.2360730   1.8636800  85.2915200  22.9851900   8.3951930
  85.2252510  22.0647570   8.1409520  84.6620340  23.0827340   9.1096570
  76.6790360  20.5519230   7.2661050  76.3205300  21.2173080   7.8534390
  76.3844920  19.7202780   7.6373670  79.8803480  21.0103470  10.1500600
  79.5803620  21.1560650   9.2528420  80.6514720  20.4508760  10.0573990
  85.2231930  25.8072470   8.1455730  85.2376470  24.8753430   7.9274640
  84.5157030  25.8932230   8.7845500  84.6565830  27.4490040   5.2396230
  85.3008050  27.6549420   5.9169650  85.0195270  26.6878440   4.7867080
  85.9297910  25.4522390   3.9573680  86.5720140  24.7515550   4.0705850
  86.4547260  26.2320830   3.7770570  87.7035530  26.2517290   7.1609740
  88.0391770  26.8383980   7.8387660  86.7835870  26.1210000   7.3907530
  75.2538930  14.0412470   7.9433150  74.5397450  14.2409390   8.5485760
  75.6733970  13.2652040   8.3147950  75.5411520  28.0292730   8.9299680
  75.6502640  27.0887470   8.7895070  74.8892080  28.2947480   8.2813410
  83.5324110  26.3008620  10.3297800  83.2120980  25.5817860  10.8743490
  82.8582470  26.9763690  10.4033860  86.7477710  16.5334780   5.6934600
  87.1158530  15.7129990   6.0214170  85.8875910  16.5936670   6.1090250
  83.7079700  19.1874370   5.9172570  84.2064950  19.6620190   6.5824420
  83.8502650  18.2637890   6.1242600  77.6869960  29.0961640  10.7419290
  78.4882690  29.4173690  11.1554690  77.1721780  28.7357220  11.4639200
  86.5234590  25.2041510  10.6894700  85.9172750  25.2273110   9.9490450
  86.2188700  24.4724550  11.2261950  87.9534960  28.9321800   9.3004110
  88.9056710  28.8479820   9.2504350  87.8063180  29.5963510   9.9737900
  75.4067770  21.5835100   9.6855340  75.9106790  21.0042380  10.2571570
  74.6675190  21.8675330  10.2231710  82.4605710  22.9906090   9.2190860
  81.6951380  23.5591090   9.1345530  82.6421670  22.6982300   8.3259090
  89.6029060  24.7211420   9.7765880  90.3438530  25.0587180   9.2733340
  88.8401740  24.8903480   9.2235650  77.4390850  19.7264690  10.5805410
  77.4796190  19.4278560  11.4890640  78.2936350  20.1272300  10.4212930
  79.3796660  18.3056790   8.5479900  78.8493120  17.8147740   7.9203240
  80.0484730  18.7340990   8.0137830  88.2774720  22.7726250   8.3121090
  88.6915740  22.9271330   9.1611510  87.3425720  22.8981470   8.4746870
  88.7496890  20.1122410  10.3160240  89.3317660  19.3574730  10.2280720
  88.9258660  20.6429850   9.5391720  79.8668960  15.2719160   8.6277190
  79.7725830  14.6539910   7.9028060  79.2866350  15.9985450   8.4007100
  82.6330400  13.8292400   5.6604580  82.1847700  13.8516660   4.8150130
  81.9995600  13.4311420   6.2574880  83.0389950  22.7246730   6.2817020
  83.4578060  23.5679460   6.1093260  82.1198580  22.8618770   6.0523800
  85.3753850  20.4562910   7.6654860  85.4950060  19.8604050   8.4049700
  86.2347850  20.4932600   7.2456160  87.7141750  21.0100100   6.2417370
  87.1876970  21.5342720   5.6382510  88.0573090  21.6427490   6.8727100
  80.8897370  29.0299740   7.3974750  80.3518460  29.7545800   7.0783450
  81.1431330  28.5530080   6.6072090  82.1422620  16.9984260   8.9230680
  82.7322310  16.6900110   9.6108500  81.3242860  16.5264010   9.0790580
  86.9616050  16.6150070   9.1563700  86.2731570  15.9531610   9.0913690
  87.6822070  16.1688340   9.6012160  83.7459580  30.2650950   7.6561400
  83.6718280  31.1686090   7.9633770  82.8438420  29.9462850   7.6283470
  75.6377080  28.4596130   3.6976650  75.2008070  28.6396930   4.5300800
  76.2054760  29.2170750   3.5558370  89.9590900  24.6865110   6.0830120
  89.1450740  25.1162270   6.3455910  90.3665100  25.2983520   5.4699170
  76.5077440  21.3568930   4.5968870  76.8750480  21.2696330   5.4764890
  75.9388260  20.5935480   4.4975730  76.0593440  18.2678020   8.5027290
  75.1649490  18.2344780   8.8421000  76.5990990  18.4664810   9.2678540
  89.7469370  15.0509740  10.3879040  90.6239550  15.0593140  10.7713040
  89.7590210  14.3140580   9.7771390  76.5633150  12.5426350   2.8510510
  77.2109340  11.9923730   2.4105670  76.9834990  12.7969500   3.6726320
  76.3165150  12.6982020   5.5935830  75.9679970  13.1545840   6.3594010
  75.9852850  11.8039150   5.6758260  77.9229520  25.8701620   9.7589020
  77.8799150  25.4994530  10.6403480  78.0540530  26.8079190   9.8990840
  81.6235550  27.4261210   5.3598740  81.3826910  27.6935770   4.4729260
  82.5638190  27.5966940   5.4149600  83.8289970  13.8893900   9.1155250
  83.7678860  14.4815730   9.8650660  84.7690350  13.7819860   8.9705510
  86.4664530  13.5463960   8.7547540  87.0804940  13.8643250   8.0928620
  87.0114090  13.0612550   9.3743400  76.9885790  12.2258220   8.8686600
  77.5368780  12.0446270   8.1052710  77.0541100  11.4352330   9.4042910
  77.7617550  28.8163870   6.8786800  77.1677870  28.6848570   7.6176840
  77.7541390  27.9802010   6.4128900  87.2072570  12.1096100   5.0816830
  86.3332410  12.4431210   4.8789760  87.0983320  11.6369280   5.9068700
  88.1144550  14.3166970   6.4658550  87.7857910  13.5018730   6.0860280
  89.0626850  14.2736780   6.3424240  90.5679160  30.0879010   3.4396120
  90.1082130  30.8394820   3.0654140  89.9391620  29.3685480   3.3810920
  77.3929780  26.1822250   5.8294840  76.6663840  25.5627540   5.7620790
  77.4538930  26.5762860   4.9592920  80.9974880  28.3967250   2.6144250
  81.5139900  27.7854610   2.0892510  81.6472260  28.8996030   3.1055260
  83.7370380  29.2875740   3.4413230  84.0248190  29.0330040   2.5646240
  84.2493600  28.7353100   4.0318800  84.9547390  13.0265940   4.0209740
  84.1719180  13.5011440   4.3006500  84.6610320  12.1220770   3.9122920
  83.8042740  30.2091840  10.8081430  84.7310050  29.9736110  10.8517390
  83.7893170  31.0363840  10.3267460  80.9906350  12.8736590  10.5723310
  80.7090620  13.3770190   9.8084130  81.3726050  12.0758340  10.2065440
  87.5921810  12.2890170  11.1503780  87.4787260  12.6084780  12.0455300
  88.4091550  12.6902680  10.8541060  88.6505430   7.7178360  94.8207860
  88.1886960   6.9465600  95.1495030  89.4630980   7.7444430  95.3260310
  84.8768740  10.0036370  94.4411850  84.2580180  10.4593870  93.8706290
  85.7320520  10.1587830  94.0401550  85.7432090   4.8875610  91.8343760
  85.1249360   5.3525060  91.2706480  86.2555340   5.5803090  92.2513270
  75.1115290   5.5732140  89.2083390  74.7343270   6.0619240  88.4768290
  75.3688360   6.2457420  89.8389920  89.5664700   6.4132040  92.0466530
  89.4561030   5.4706370  92.1715950  89.5632950   6.7747680  92.9329290
  85.1084980   2.0397360  91.4029020  84.1814260   1.9734740  91.6317490
  85.2609800   2.9777490  91.2884260  89.1382270   3.6017660  91.9064270
  88.5194690   3.2637210  91.2590570  89.1206720   2.9577420  92.6143460
  80.7141620   2.5662100  94.1848750  80.3098620   1.8539350  93.6894650
  80.8004740   2.2215340  95.0736790  87.3146970   2.8404470  88.9137020
  87.7540250   2.0026900  88.7674840  88.0275390   3.4733870  89.0001160
  85.4242350   7.7800540  92.8818260  85.8638260   8.5224870  92.4673650
  85.3629240   8.0227110  93.8057220  76.2979250   6.3322410  93.9030220
  75.8907330   6.4737000  93.0483820  77.1892260   6.0482570  93.7001430
  88.0912530  10.7669660  90.2381270  87.9313670  10.4772600  91.1363100
  87.9259240   9.9909790  89.7026500  80.5700910  10.5468190  92.0152890
  80.3943390   9.6303730  91.8020690  79.7156650  10.9055480  92.2550690
  87.7938660   8.2757220  88.7979270  87.1003820   8.2734510  88.1381550
  88.5361520   7.8516540  88.3673440  87.3588590   9.9019930  92.8727760
  87.8145540   9.1209310  93.1866380  87.6981110  10.6126750  93.4168940
  79.1508420   5.1433990  90.5873990  78.3770680   4.6031610  90.4272710
  79.8803050   4.6240600  90.2491750  79.1945820   4.8114370  94.2252800
  79.7124490   4.0082630  94.1709690  78.7429840   4.7493510  95.0669630
  84.0815320   6.0780650  89.4980100  84.4231020   6.8222880  89.0023420
  83.2528030   6.3911770  89.8604930  86.9642730   5.3996490  94.8625610
  87.3166550   4.8024620  94.2026980  86.0805060   5.0740720  95.0333860
  83.0506010   6.1594180  92.2696020  83.7377140   6.7063390  92.6503610
  82.2638430   6.7034910  92.3045630  75.1898410   1.7767000  87.7613100
  76.0593260   2.0591800  88.0449020  74.6988730   2.5902870  87.6461910
  82.3533220   3.1640210  91.8821380  82.8096000   3.9745460  92.1081570
  82.0021430   2.8463350  92.7139870  89.7753630   6.9627520  87.5530270
  89.5491210   6.2457960  88.1454910  89.3849830   6.7139960  86.7152020
  75.5569660  10.9894380  88.3274730  75.9167300  11.5883720  87.6732000
  75.4162000  11.5354270  89.1009760  89.3569880   4.8799460  89.2144430
  89.0691580   5.3412150  90.0022310  90.1522050   4.4197230  89.4828650
  81.5738280   8.3725580  89.1448400  81.5648380   9.1055270  88.5292910
  80.6536640   8.1257160  89.2375360  77.1744920   3.5940470  89.8895160
  76.5672870   4.3339370  89.8990460  77.6494270   3.6839830  89.0633360
  84.5597880   8.4353820  87.8073590  84.6609860   8.2317810  86.8775570
  83.6599620   8.1812100  88.0121370  83.2015990  10.9540140  92.5021260
  83.4557490  10.9161530  91.5800630  82.2528470  10.8273470  92.4949510
  79.1850210   3.5551620  87.6383730  79.9513480   3.4432980  88.2009160
  79.2624900   2.8589590  86.9860500  78.6811680  11.1372080  95.4251160
  79.4174160  10.5887540  95.6959730  79.0652600  12.0028090  95.2857150
  75.5657160   7.2045650  91.2992670  74.6396940   7.4466790  91.2898080
  76.0313590   8.0319910  91.1777420  81.7913990  10.3102390  87.2476730
  82.5842600  10.5991220  86.7958520  81.2718340   9.8794560  86.5689210
  82.3091390   5.5305800  87.1119080  82.2042030   4.9158150  87.8380460
  82.1415610   5.0071690  86.3282090  85.5494120   4.5925830  87.7161070
  85.0004220   5.0395130  88.3603810  86.1713380   4.0875080  88.2398740
  81.2169240   3.5516750  89.6126370  81.6385660   3.3856620  90.4557760
  81.3420080   2.7416980  89.1181510  83.7296880   2.5754360  86.8603470
  84.2502540   1.8603380  86.4944620  84.3765280   3.2140230  87.1603980
  84.2944910  10.6565970  89.1505210  85.1895700  10.9950940  89.1723970
  84.3262540   9.9345380  88.5229490  77.9341070   6.0293020  87.3792210
  78.3715940   6.5722690  88.0349790  78.4188800   5.2039970  87.3888550
  75.1486870   8.8182050  94.8312470  75.4789880   7.9503110  94.5991110
  75.5777870   9.0240570  95.6617430  79.7448790   7.1491060  92.4914440
  79.4444330   7.0256030  93.3918350  79.6386280   6.2899650  92.0830170
  75.4701510   2.1972870  93.9282980  74.8150350   1.9284510  93.2842680
  76.3079460   2.0877350  93.4784960  90.0166950  10.6640220  93.4815840
  90.6126020  10.3424790  92.8050260  90.2745100  10.1912040  94.2729110
  75.6759780  10.7253150  92.9109050  75.5081820  10.0923830  93.6090940
  74.8094290  10.9312550  92.5603240  77.2822480   9.4186380  90.3559190
  76.7570100   9.7994410  89.6521150  77.2067060  10.0437150  91.0768900
  79.8815450  11.3668760  89.2308440  80.6134270  11.0828040  88.6832330
  80.1409120  11.1282040  90.1207820  79.0430240   7.4833490  89.2354770
  78.4139120   7.9518590  89.7840600  79.1578070   6.6382710  89.6700960
  84.6298000   3.3118170  77.2665240  83.8540100   2.8318610  77.5563810
  85.2810930   2.6323820  77.0921400  78.6463830   3.6237980  78.1441000
  77.8148710   3.3686690  78.5437510  79.2544810   3.6948750  78.8798920
  88.6505430   7.7178360  76.0464370  88.1886960   6.9465600  76.3751540
  89.4630980   7.7444430  76.5516820  78.6265090   7.6578070  78.3399020
  78.9293130   6.7675810  78.1609240  79.3708680   8.2148290  78.1121270
  84.8768740  10.0036370  75.6668360  84.2580180  10.4593870  75.0962800
  85.7320520  10.1587830  75.2658060  84.0706990   5.9875360  77.2735400
  84.0015270   5.0465300  77.1124530  84.8326850   6.0776770  77.8457970
  85.7432090   4.8875610  73.0600270  85.1249360   5.3525060  72.4962990
  86.2555340   5.5803090  73.4769780  80.6063850   4.4151480  79.7383870
  80.2733230   5.0420400  80.3804940  80.7830530   4.9413360  78.9585540
  79.8182950   6.3832280  81.5533050  80.4356950   7.0583360  81.2717500
  78.9576070   6.7920260  81.4620550  75.1115290   5.5732140  70.4339900
  74.7343270   6.0619240  69.7024800  75.3688360   6.2457420  71.0646430
  88.2719280   9.6915820  78.1832870  88.2846440   9.2878110  77.3155130
  87.7194500  10.4663110  78.0794300  89.5664700   6.4132040  73.2723040
  89.4561030   5.4706370  73.3972460  89.5632950   6.7747680  74.1585800
  87.6704720   4.5945660  79.5115480  88.0873510   4.3805770  78.6768940
  88.3944540   4.8518450  80.0824100  85.1084980   2.0397360  72.6285530
  84.1814260   1.9734740  72.8574000  85.2609800   2.9777490  72.5140770
  89.1382270   3.6017660  73.1320780  88.5194690   3.2637210  72.4847080
  89.1206720   2.9577420  73.8399970  80.7141620   2.5662100  75.4105260
  80.3098620   1.8539350  74.9151160  80.8004740   2.2215340  76.2993300
  81.1823320   6.2529660  77.5744470  80.8851610   5.6475130  76.8952250
  82.1323140   6.2906970  77.4633830  89.2708930   9.8261530  81.2367570
  88.7939490  10.6333720  81.0440180  88.5870720   9.1739860  81.3893780
  80.2741750   5.9911350  84.2252270  79.3770280   6.2151320  84.4725670
  80.2994620   6.1146290  83.2763670  87.3146970   2.8404470  70.1393530
  87.7540250   2.0026900  69.9931350  88.0275390   3.4733870  70.2257670
  79.1012970   2.8624670  82.8009640  78.9620740   3.7347470  83.1697040
  78.2194330   2.5197480  82.6557580  85.4242350   7.7800540  74.1074770
  85.8638260   8.5224870  73.6930160  85.3629240   8.0227110  75.0313730
  80.8993320   8.8046370  85.0094790  80.8708750   9.2089320  84.1423220
  80.7358290   7.8756730  84.8466390  75.0531620   4.6322220  78.7180550
  75.1312040   4.7670990  77.7736270  75.6673300   3.9238110  78.9108670
  76.2979250   6.3322410  75.1286730  75.8907330   6.4737000  74.2740330
  77.1892260   6.0482570  74.9257940  86.1158130  10.4814320  82.0353780
  86.6302800  10.3922330  82.8376210  85.2727210  10.8274020  82.3281690
  88.0912530  10.7669660  71.4637780  87.9313670  10.4772600  72.3619610
  87.9259240   9.9909790  70.9283010  80.5700910  10.5468190  73.2409400
  80.3943390   9.6303730  73.0277200  79.7156650  10.9055480  73.4807200
  87.7938660   8.2757220  70.0235780  87.1003820   8.2734510  69.3638060
  88.5361520   7.8516540  69.5929950  87.3588590   9.9019930  74.0984270
  87.8145540   9.1209310  74.4122890  87.6981110  10.6126750  74.6425450
  75.1091140   5.6736390  81.2575010  75.2722180   5.2041750  80.4394380
  75.5743590   5.1659950  81.9223850  76.6830120   5.0487820  83.4170820
  76.2984910   4.4081490  84.0153780  76.9942310   5.7523940  83.9865550
  82.8327260   1.8964360  78.8979440  83.1997390   1.4222930  79.6440780
  82.6432320   2.7705930  79.2387780  79.1508420   5.1433990  71.8130500
  78.3770680   4.6031610  71.6529220  79.8803050   4.6240600  71.4748260
  89.9096400   4.1399350  77.6056890  90.6295520   4.6354640  77.2153000
  89.7078220   3.4617240  76.9610760  85.2915200   4.2108410  83.4925890
  85.2252510   3.2904080  83.2383480  84.6620340   4.3083850  84.2070530
  79.1945820   4.8114370  75.4509310  79.7124490   4.0082630  75.3966200
  78.7429840   4.7493510  76.2926140  84.0815320   6.0780650  70.7236610
  84.4231020   6.8222880  70.2279930  83.2528030   6.3911770  71.0861440
  79.8803480   2.2359980  85.2474560  79.5803620   2.3817160  84.3502380
  80.6514720   1.6765270  85.1547950  85.2231930   7.0328980  83.2429690
  85.2376470   6.1009940  83.0248600  84.5157030   7.1188740  83.8819460
  86.9642730   5.3996490  76.0882120  87.3166550   4.8024620  75.4283490
  86.0805060   5.0740720  76.2590370  83.0506010   6.1594180  73.4952530
  83.7377140   6.7063390  73.8760120  82.2638430   6.7034910  73.5302140
  75.1898410   1.7767000  68.9869610  76.0593260   2.0591800  69.2705530
  74.6988730   2.5902870  68.8718420  82.3533220   3.1640210  73.1077890
  82.8096000   3.9745460  73.3338080  82.0021430   2.8463350  73.9396380
  84.6565830   8.6746550  80.3370190  85.3008050   8.8805930  81.0143610
  85.0195270   7.9134950  79.8841040  85.9297910   6.6778900  79.0547640
  86.5720140   5.9772060  79.1679810  86.4547260   7.4577340  78.8744530
  89.7753630   6.9627520  68.7786780  89.5491210   6.2457960  69.3711420
  89.3849830   6.7139960  67.9408530  87.7035530   7.4773800  82.2583700
  88.0391770   8.0640490  82.9361620  86.7835870   7.3466510  82.4881490
  75.5569660  10.9894380  69.5531240  75.9167300  11.5883720  68.8988510
  75.4162000  11.5354270  70.3266270  89.3569880   4.8799460  70.4400940
  89.0691580   5.3412150  71.2278820  90.1522050   4.4197230  70.7085160
  75.5411520   9.2549240  84.0273640  75.6502640   8.3143980  83.8869030
  74.8892080   9.5203990  83.3787370  83.5324110   7.5265130  85.4271760
  83.2120980   6.8074370  85.9717450  82.8582470   8.2020200  85.5007820
  81.5738280   8.3725580  70.3704910  81.5648380   9.1055270  69.7549420
  80.6536640   8.1257160  70.4631870  77.1744920   3.5940470  71.1151670
  76.5672870   4.3339370  71.1246970  77.6494270   3.6839830  70.2889870
  84.5597880   8.4353820  69.0330100  84.6609860   8.2317810  68.1032080
  83.6599620   8.1812100  69.2377880  83.2015990  10.9540140  73.7277770
  83.4557490  10.9161530  72.8057140  82.2528470  10.8273470  73.7206020
  79.1850210   3.5551620  68.8640240  79.9513480   3.4432980  69.4265670
  79.2624900   2.8589590  68.2117010  78.6811680  11.1372080  76.6507670
  79.4174160  10.5887540  76.9216240  79.0652600  12.0028090  76.5113660
  75.5657160   7.2045650  72.5249180  74.6396940   7.4466790  72.5154590
  76.0313590   8.0319910  72.4033930  77.6869960  10.3218150  85.8393250
  78.4882690  10.6430200  86.2528650  77.1721780   9.9613730  86.5613160
  81.7913990  10.3102390  68.4733240  82.5842600  10.5991220  68.0215030
  81.2718340   9.8794560  67.7945720  86.5234590   6.4298020  85.7868660
  85.9172750   6.4529620  85.0464410  86.2188700   5.6981060  86.3235910
  87.9534960  10.1578310  84.3978070  88.9056710  10.0736330  84.3478310
  87.8063180  10.8220020  85.0711860  75.4067770   2.8091610  84.7829300
  75.9106790   2.2298890  85.3545530  74.6675190   3.0931840  85.3205670
  82.3091390   5.5305800  68.3375590  82.2042030   4.9158150  69.0636970
  82.1415610   5.0071690  67.5538600  82.4605710   4.2162600  84.3164820
  81.6951380   4.7847600  84.2319490  82.6421670   3.9238810  83.4233050
  85.5494120   4.5925830  68.9417580  85.0004220   5.0395130  69.5860320
  86.1713380   4.0875080  69.4655250  89.6029060   5.9467930  84.8739840
  90.3438530   6.2843690  84.3707300  88.8401740   6.1159990  84.3209610
  81.2169240   3.5516750  70.8382880  81.6385660   3.3856620  71.6814270
  81.3420080   2.7416980  70.3438020  83.7296880   2.5754360  68.0859980
  84.2502540   1.8603380  67.7201130  84.3765280   3.2140230  68.3860490
  88.2774720   3.9982760  83.4095050  88.6915740   4.1527840  84.2585470
  87.3425720   4.1237980  83.5720830  83.0389950   3.9503240  81.3790980
  83.4578060   4.7935970  81.2067220  82.1198580   4.0875280  81.1497760
  87.7141750   2.2356610  81.3391330  87.1876970   2.7599230  80.7356470
  88.0573090   2.8684000  81.9701060  80.8897370  10.2556250  82.4948710
  80.3518460  10.9802310  82.1757410  81.1431330   9.7786590  81.7046050
  83.7459580  11.4907460  82.7535360  83.6718280  12.3942600  83.0607730
  82.8438420  11.1719360  82.7257430  84.2944910  10.6565970  70.3761720
  85.1895700  10.9950940  70.3980480  84.3262540   9.9345380  69.7486000
  77.9341070   6.0293020  68.6048720  78.3715940   6.5722690  69.2606300
  78.4188800   5.2039970  68.6145060  75.1486870   8.8182050  76.0568980
  75.4789880   7.9503110  75.8247620  75.5777870   9.0240570  76.8873940
  79.7448790   7.1491060  73.7170950  79.4444330   7.0256030  74.6174860
  79.6386280   6.2899650  73.3086680  75.6377080   9.6852640  78.7950610
  75.2008070   9.8653440  79.6274760  76.2054760  10.4427260  78.6532330
  75.4701510   2.1972870  75.1539490  74.8150350   1.9284510  74.5099190
  76.3079460   2.0877350  74.7041470  89.9590900   5.9121620  81.1804080
  89.1450740   6.3418780  81.4429870  90.3665100   6.5240030  80.5673130
  76.5077440   2.5825440  79.6942830  76.8750480   2.4952840  80.5738850
  75.9388260   1.8191990  79.5949690  90.0166950  10.6640220  74.7072350
  90.6126020  10.3424790  74.0306770  90.2745100  10.1912040  75.4985620
  77.9229520   7.0958130  84.8562980  77.8799150   6.7251040  85.7377440
  78.0540530   8.0335700  84.9964800  81.6235550   8.6517720  80.4572700
  81.3826910   8.9192280  79.5703220  82.5638190   8.8223450  80.5123560
  77.7617550  10.0420380  81.9760760  77.1677870   9.9105080  82.7150800
  77.7541390   9.2058520  81.5102860  90.5679160  11.3135520  78.5370080
  90.1082130  12.0651330  78.1628100  89.9391620  10.5941990  78.4784880
  77.3929780   7.4078760  80.9268800  76.6663840   6.7884050  80.8594750
  77.4538930   7.8019370  80.0566880  80.9974880   9.6223760  77.7118210
  81.5139900   9.0111120  77.1866470  81.6472260  10.1252540  78.2029220
  83.7370380  10.5132250  78.5387190  84.0248190  10.2586550  77.6620200
  84.2493600   9.9609610  79.1292760  75.6759780  10.7253150  74.1365560
  75.5081820  10.0923830  74.8347450  74.8094290  10.9312550  73.7859750
  77.2822480   9.4186380  71.5815700  76.7570100   9.7994410  70.8777660
  77.2067060  10.0437150  72.3025410  83.8042740  11.4348350  85.9055390
  84.7310050  11.1992620  85.9491350  83.7893170  12.2620350  85.4241420
  79.8815450  11.3668760  70.4564950  80.6134270  11.0828040  69.9088840
  80.1409120  11.1282040  71.3464330  79.0430240   7.4833490  70.4611280
  78.4139120   7.9518590  71.0097110  79.1578070   6.6382710  70.8957470
  84.6298000   3.3118170  58.4921750  83.8540100   2.8318610  58.7820320
  85.2810930   2.6323820  58.3177910  78.6463830   3.6237980  59.3697510
  77.8148710   3.3686690  59.7694020  79.2544810   3.6948750  60.1055430
  88.6505430   7.7178360  57.2720880  88.1886960   6.9465600  57.6008050
  89.4630980   7.7444430  57.7773330  78.6265090   7.6578070  59.5655530
  78.9293130   6.7675810  59.3865750  79.3708680   8.2148290  59.3377780
  84.8768740  10.0036370  56.8924870  84.2580180  10.4593870  56.3219310
  85.7320520  10.1587830  56.4914570  84.0706990   5.9875360  58.4991910
  84.0015270   5.0465300  58.3381040  84.8326850   6.0776770  59.0714480
  85.7432090   4.8875610  54.2856780  85.1249360   5.3525060  53.7219500
  86.2555340   5.5803090  54.7026290  80.6063850   4.4151480  60.9640380
  80.2733230   5.0420400  61.6061450  80.7830530   4.9413360  60.1842050
  79.8182950   6.3832280  62.7789560  80.4356950   7.0583360  62.4974010
  78.9576070   6.7920260  62.6877060  75.1115290   5.5732140  51.6596410
  74.7343270   6.0619240  50.9281310  75.3688360   6.2457420  52.2902940
  88.2719280   9.6915820  59.4089380  88.2846440   9.2878110  58.5411640
  87.7194500  10.4663110  59.3050810  89.5664700   6.4132040  54.4979550
  89.4561030   5.4706370  54.6228970  89.5632950   6.7747680  55.3842310
  87.6704720   4.5945660  60.7371990  88.0873510   4.3805770  59.9025450
  88.3944540   4.8518450  61.3080610  85.1084980   2.0397360  53.8542040
  84.1814260   1.9734740  54.0830510  85.2609800   2.9777490  53.7397280
  89.1382270   3.6017660  54.3577290  88.5194690   3.2637210  53.7103590
  89.1206720   2.9577420  55.0656480  80.7141620   2.5662100  56.6361770
  80.3098620   1.8539350  56.1407670  80.8004740   2.2215340  57.5249810
  81.1823320   6.2529660  58.8000980  80.8851610   5.6475130  58.1208760
  82.1323140   6.2906970  58.6890340  89.2708930   9.8261530  62.4624080
  88.7939490  10.6333720  62.2696690  88.5870720   9.1739860  62.6150290
  80.2741750   5.9911350  65.4508780  79.3770280   6.2151320  65.6982180
  80.2994620   6.1146290  64.5020180  87.3146970   2.8404470  51.3650040
  87.7540250   2.0026900  51.2187860  88.0275390   3.4733870  51.4514180
  79.1012970   2.8624670  64.0266150  78.9620740   3.7347470  64.3953550
  78.2194330   2.5197480  63.8814090  85.4242350   7.7800540  55.3331280
  85.8638260   8.5224870  54.9186670  85.3629240   8.0227110  56.2570240
  80.8993320   8.8046370  66.2351300  80.8708750   9.2089320  65.3679730
  80.7358290   7.8756730  66.0722900  75.0531620   4.6322220  59.9437060
  75.1312040   4.7670990  58.9992780  75.6673300   3.9238110  60.1365180
  76.2979250   6.3322410  56.3543240  75.8907330   6.4737000  55.4996840
  77.1892260   6.0482570  56.1514450  86.1158130  10.4814320  63.2610290
  86.6302800  10.3922330  64.0632720  85.2727210  10.8274020  63.5538200
  88.0912530  10.7669660  52.6894290  87.9313670  10.4772600  53.5876120
  87.9259240   9.9909790  52.1539520  80.5700910  10.5468190  54.4665910
  80.3943390   9.6303730  54.2533710  79.7156650  10.9055480  54.7063710
  87.7938660   8.2757220  51.2492290  87.1003820   8.2734510  50.5894570
  88.5361520   7.8516540  50.8186460  87.3588590   9.9019930  55.3240780
  87.8145540   9.1209310  55.6379400  87.6981110  10.6126750  55.8681960
  75.1091140   5.6736390  62.4831520  75.2722180   5.2041750  61.6650890
  75.5743590   5.1659950  63.1480360  76.6830120   5.0487820  64.6427330
  76.2984910   4.4081490  65.2410290  76.9942310   5.7523940  65.2122060
  82.8327260   1.8964360  60.1235950  83.1997390   1.4222930  60.8697290
  82.6432320   2.7705930  60.4644290  79.1508420   5.1433990  53.0387010
  78.3770680   4.6031610  52.8785730  79.8803050   4.6240600  52.7004770
  89.9096400   4.1399350  58.8313400  90.6295520   4.6354640  58.4409510
  89.7078220   3.4617240  58.1867270  85.2915200   4.2108410  64.7182400
  85.2252510   3.2904080  64.4639990  84.6620340   4.3083850  65.4327040
  79.1945820   4.8114370  56.6765820  79.7124490   4.0082630  56.6222710
  78.7429840   4.7493510  57.5182650  84.0815320   6.0780650  51.9493120
  84.4231020   6.8222880  51.4536440  83.2528030   6.3911770  52.3117950
  79.8803480   2.2359980  66.4731070  79.5803620   2.3817160  65.5758890
  80.6514720   1.6765270  66.3804460  85.2231930   7.0328980  64.4686200
  85.2376470   6.1009940  64.2505110  84.5157030   7.1188740  65.1075970
  86.9642730   5.3996490  57.3138630  87.3166550   4.8024620  56.6540000
  86.0805060   5.0740720  57.4846880  83.0506010   6.1594180  54.7209040
  83.7377140   6.7063390  55.1016630  82.2638430   6.7034910  54.7558650
  75.1898410   1.7767000  50.2126120  76.0593260   2.0591800  50.4962040
  74.6988730   2.5902870  50.0974930  82.3533220   3.1640210  54.3334400
  82.8096000   3.9745460  54.5594590  82.0021430   2.8463350  55.1652890
  84.6565830   8.6746550  61.5626700  85.3008050   8.8805930  62.2400120
  85.0195270   7.9134950  61.1097550  85.9297910   6.6778900  60.2804150
  86.5720140   5.9772060  60.3936320  86.4547260   7.4577340  60.1001040
  89.7753630   6.9627520  50.0043290  89.5491210   6.2457960  50.5967930
  89.3849830   6.7139960  49.1665040  87.7035530   7.4773800  63.4840210
  88.0391770   8.0640490  64.1618130  86.7835870   7.3466510  63.7138000
  75.5569660  10.9894380  50.7787750  75.9167300  11.5883720  50.1245020
  75.4162000  11.5354270  51.5522780  89.3569880   4.8799460  51.6657450
  89.0691580   5.3412150  52.4535330  90.1522050   4.4197230  51.9341670
  75.5411520   9.2549240  65.2530150  75.6502640   8.3143980  65.1125540
  74.8892080   9.5203990  64.6043880  83.5324110   7.5265130  66.6528270
  83.2120980   6.8074370  67.1973960  82.8582470   8.2020200  66.7264330
  81.5738280   8.3725580  51.5961420  81.5648380   9.1055270  50.9805930
  80.6536640   8.1257160  51.6888380  77.1744920   3.5940470  52.3408180
  76.5672870   4.3339370  52.3503480  77.6494270   3.6839830  51.5146380
  84.5597880   8.4353820  50.2586610  84.6609860   8.2317810  49.3288590
  83.6599620   8.1812100  50.4634390  83.2015990  10.9540140  54.9534280
  83.4557490  10.9161530  54.0313650  82.2528470  10.8273470  54.9462530
  79.1850210   3.5551620  50.0896750  79.9513480   3.4432980  50.6522180
  79.2624900   2.8589590  49.4373520  78.6811680  11.1372080  57.8764180
  79.4174160  10.5887540  58.1472750  79.0652600  12.0028090  57.7370170
  75.5657160   7.2045650  53.7505690  74.6396940   7.4466790  53.7411100
  76.0313590   8.0319910  53.6290440  77.6869960  10.3218150  67.0649760
  78.4882690  10.6430200  67.4785160  77.1721780   9.9613730  67.7869670
  81.7913990  10.3102390  49.6989750  82.5842600  10.5991220  49.2471540
  81.2718340   9.8794560  49.0202230  86.5234590   6.4298020  67.0125170
  85.9172750   6.4529620  66.2720920  86.2188700   5.6981060  67.5492420
  87.9534960  10.1578310  65.6234580  88.9056710  10.0736330  65.5734820
  87.8063180  10.8220020  66.2968370  75.4067770   2.8091610  66.0085810
  75.9106790   2.2298890  66.5802040  74.6675190   3.0931840  66.5462180
  82.3091390   5.5305800  49.5632100  82.2042030   4.9158150  50.2893480
  82.1415610   5.0071690  48.7795110  82.4605710   4.2162600  65.5421330
  81.6951380   4.7847600  65.4576000  82.6421670   3.9238810  64.6489560
  85.5494120   4.5925830  50.1674090  85.0004220   5.0395130  50.8116830
  86.1713380   4.0875080  50.6911760  89.6029060   5.9467930  66.0996350
  90.3438530   6.2843690  65.5963810  88.8401740   6.1159990  65.5466120
  81.2169240   3.5516750  52.0639390  81.6385660   3.3856620  52.9070780
  81.3420080   2.7416980  51.5694530  83.7296880   2.5754360  49.3116490
  84.2502540   1.8603380  48.9457640  84.3765280   3.2140230  49.6117000
  88.2774720   3.9982760  64.6351560  88.6915740   4.1527840  65.4841980
  87.3425720   4.1237980  64.7977340  83.0389950   3.9503240  62.6047490
  83.4578060   4.7935970  62.4323730  82.1198580   4.0875280  62.3754270
  87.7141750   2.2356610  62.5647840  87.1876970   2.7599230  61.9612980
  88.0573090   2.8684000  63.1957570  80.8897370  10.2556250  63.7205220
  80.3518460  10.9802310  63.4013920  81.1431330   9.7786590  62.9302560
  83.7459580  11.4907460  63.9791870  83.6718280  12.3942600  64.2864240
  82.8438420  11.1719360  63.9513940  84.2944910  10.6565970  51.6018230
  85.1895700  10.9950940  51.6236990  84.3262540   9.9345380  50.9742510
  77.9341070   6.0293020  49.8305230  78.3715940   6.5722690  50.4862810
  78.4188800   5.2039970  49.8401570  75.1486870   8.8182050  57.2825490
  75.4789880   7.9503110  57.0504130  75.5777870   9.0240570  58.1130450
  79.7448790   7.1491060  54.9427460  79.4444330   7.0256030  55.8431370
  79.6386280   6.2899650  54.5343190  75.6377080   9.6852640  60.0207120
  75.2008070   9.8653440  60.8531270  76.2054760  10.4427260  59.8788840
  75.4701510   2.1972870  56.3796000  74.8150350   1.9284510  55.7355700
  76.3079460   2.0877350  55.9297980  89.9590900   5.9121620  62.4060590
  89.1450740   6.3418780  62.6686380  90.3665100   6.5240030  61.7929640
  76.5077440   2.5825440  60.9199340  76.8750480   2.4952840  61.7995360
  75.9388260   1.8191990  60.8206200  90.0166950  10.6640220  55.9328860
  90.6126020  10.3424790  55.2563280  90.2745100  10.1912040  56.7242130
  77.9229520   7.0958130  66.0819490  77.8799150   6.7251040  66.9633950
  78.0540530   8.0335700  66.2221310  81.6235550   8.6517720  61.6829210
  81.3826910   8.9192280  60.7959730  82.5638190   8.8223450  61.7380070
  77.7617550  10.0420380  63.2017270  77.1677870   9.9105080  63.9407310
  77.7541390   9.2058520  62.7359370  90.5679160  11.3135520  59.7626590
  90.1082130  12.0651330  59.3884610  89.9391620  10.5941990  59.7041390
  77.3929780   7.4078760  62.1525310  76.6663840   6.7884050  62.0851260
  77.4538930   7.8019370  61.2823390  80.9974880   9.6223760  58.9374720
  81.5139900   9.0111120  58.4122980  81.6472260  10.1252540  59.4285730
  83.7370380  10.5132250  59.7643700  84.0248190  10.2586550  58.8876710
  84.2493600   9.9609610  60.3549270  75.6759780  10.7253150  55.3622070
  75.5081820  10.0923830  56.0603960  74.8094290  10.9312550  55.0116260
  77.2822480   9.4186380  52.8072210  76.7570100   9.7994410  52.1034170
  77.2067060  10.0437150  53.5281920  83.8042740  11.4348350  67.1311900
  84.7310050  11.1992620  67.1747860  83.7893170  12.2620350  66.6497930
  79.8815450  11.3668760  51.6821460  80.6134270  11.0828040  51.1345350
  80.1409120  11.1282040  52.5720840  79.0430240   7.4833490  51.6867790
  78.4139120   7.9518590  52.2353620  79.1578070   6.6382710  52.1213980
  84.6298000   3.3118170  39.7178260  83.8540100   2.8318610  40.0076830
  85.2810930   2.6323820  39.5434420  78.6463830   3.6237980  40.5954020
  77.8148710   3.3686690  40.9950530  79.2544810   3.6948750  41.3311940
  88.6505430   7.7178360  38.4977390  88.1886960   6.9465600  38.8264560
  89.4630980   7.7444430  39.0029840  78.6265090   7.6578070  40.7912040
  78.9293130   6.7675810  40.6122260  79.3708680   8.2148290  40.5634290
  84.8768740  10.0036370  38.1181380  84.2580180  10.4593870  37.5475820
  85.7320520  10.1587830  37.7171080  84.0706990   5.9875360  39.7248420
  84.0015270   5.0465300  39.5637550  84.8326850   6.0776770  40.2970990
  85.7432090   4.8875610  35.5113290  85.1249360   5.3525060  34.9476010
  86.2555340   5.5803090  35.9282800  80.6063850   4.4151480  42.1896890
  80.2733230   5.0420400  42.8317960  80.7830530   4.9413360  41.4098560
  79.8182950   6.3832280  44.0046070  80.4356950   7.0583360  43.7230520
  78.9576070   6.7920260  43.9133570  75.1115290   5.5732140  32.8852920
  74.7343270   6.0619240  32.1537820  75.3688360   6.2457420  33.5159450
  88.2719280   9.6915820  40.6345890  88.2846440   9.2878110  39.7668150
  87.7194500  10.4663110  40.5307320  89.5664700   6.4132040  35.7236060
  89.4561030   5.4706370  35.8485480  89.5632950   6.7747680  36.6098820
  87.6704720   4.5945660  41.9628500  88.0873510   4.3805770  41.1281960
  88.3944540   4.8518450  42.5337120  85.1084980   2.0397360  35.0798550
  84.1814260   1.9734740  35.3087020  85.2609800   2.9777490  34.9653790
  89.1382270   3.6017660  35.5833800  88.5194690   3.2637210  34.9360100
  89.1206720   2.9577420  36.2912990  80.7141620   2.5662100  37.8618280
  80.3098620   1.8539350  37.3664180  80.8004740   2.2215340  38.7506320
  81.1823320   6.2529660  40.0257490  80.8851610   5.6475130  39.3465270
  82.1323140   6.2906970  39.9146850  89.2708930   9.8261530  43.6880590
  88.7939490  10.6333720  43.4953200  88.5870720   9.1739860  43.8406800
  80.2741750   5.9911350  46.6765290  79.3770280   6.2151320  46.9238690
  80.2994620   6.1146290  45.7276690  87.3146970   2.8404470  32.5906550
  87.7540250   2.0026900  32.4444370  88.0275390   3.4733870  32.6770690
  79.1012970   2.8624670  45.2522660  78.9620740   3.7347470  45.6210060
  78.2194330   2.5197480  45.1070600  85.4242350   7.7800540  36.5587790
  85.8638260   8.5224870  36.1443180  85.3629240   8.0227110  37.4826750
  80.8993320   8.8046370  47.4607810  80.8708750   9.2089320  46.5936240
  80.7358290   7.8756730  47.2979410  75.0531620   4.6322220  41.1693570
  75.1312040   4.7670990  40.2249290  75.6673300   3.9238110  41.3621690
  76.2979250   6.3322410  37.5799750  75.8907330   6.4737000  36.7253350
  77.1892260   6.0482570  37.3770960  86.1158130  10.4814320  44.4866800
  86.6302800  10.3922330  45.2889230  85.2727210  10.8274020  44.7794710
  88.0912530  10.7669660  33.9150800  87.9313670  10.4772600  34.8132630
  87.9259240   9.9909790  33.3796030  80.5700910  10.5468190  35.6922420
  80.3943390   9.6303730  35.4790220  79.7156650  10.9055480  35.9320220
  87.7938660   8.2757220  32.4748800  87.1003820   8.2734510  31.8151080
  88.5361520   7.8516540  32.0442970  87.3588590   9.9019930  36.5497290
  87.8145540   9.1209310  36.8635910  87.6981110  10.6126750  37.0938470
  75.1091140   5.6736390  43.7088030  75.2722180   5.2041750  42.8907400
  75.5743590   5.1659950  44.3736870  76.6830120   5.0487820  45.8683840
  76.2984910   4.4081490  46.4666800  76.9942310   5.7523940  46.4378570
  82.8327260   1.8964360  41.3492460  83.1997390   1.4222930  42.0953800
  82.6432320   2.7705930  41.6900800  79.1508420   5.1433990  34.2643520
  78.3770680   4.6031610  34.1042240  79.8803050   4.6240600  33.9261280
  89.9096400   4.1399350  40.0569910  90.6295520   4.6354640  39.6666020
  89.7078220   3.4617240  39.4123780  85.2915200   4.2108410  45.9438910
  85.2252510   3.2904080  45.6896500  84.6620340   4.3083850  46.6583550
  79.1945820   4.8114370  37.9022330  79.7124490   4.0082630  37.8479220
  78.7429840   4.7493510  38.7439160  84.0815320   6.0780650  33.1749630
  84.4231020   6.8222880  32.6792950  83.2528030   6.3911770  33.5374460
  79.8803480   2.2359980  47.6987580  79.5803620   2.3817160  46.8015400
  80.6514720   1.6765270  47.6060970  85.2231930   7.0328980  45.6942710
  85.2376470   6.1009940  45.4761620  84.5157030   7.1188740  46.3332480
  86.9642730   5.3996490  38.5395140  87.3166550   4.8024620  37.8796510
  86.0805060   5.0740720  38.7103390  83.0506010   6.1594180  35.9465550
  83.7377140   6.7063390  36.3273140  82.2638430   6.7034910  35.9815160
  75.1898410   1.7767000  31.4382630  76.0593260   2.0591800  31.7218550
  74.6988730   2.5902870  31.3231440  82.3533220   3.1640210  35.5590910
  82.8096000   3.9745460  35.7851100  82.0021430   2.8463350  36.3909400
  84.6565830   8.6746550  42.7883210  85.3008050   8.8805930  43.4656630
  85.0195270   7.9134950  42.3354060  85.9297910   6.6778900  41.5060660
  86.5720140   5.9772060  41.6192830  86.4547260   7.4577340  41.3257550
  89.7753630   6.9627520  31.2299800  89.5491210   6.2457960  31.8224440
  89.3849830   6.7139960  30.3921550  87.7035530   7.4773800  44.7096720
  88.0391770   8.0640490  45.3874640  86.7835870   7.3466510  44.9394510
  75.5569660  10.9894380  32.0044260  75.9167300  11.5883720  31.3501530
  75.4162000  11.5354270  32.7779290  89.3569880   4.8799460  32.8913960
  89.0691580   5.3412150  33.6791840  90.1522050   4.4197230  33.1598180
  75.5411520   9.2549240  46.4786660  75.6502640   8.3143980  46.3382050
  74.8892080   9.5203990  45.8300390  83.5324110   7.5265130  47.8784780
  83.2120980   6.8074370  48.4230470  82.8582470   8.2020200  47.9520840
  81.5738280   8.3725580  32.8217930  81.5648380   9.1055270  32.2062440
  80.6536640   8.1257160  32.9144890  77.1744920   3.5940470  33.5664690
  76.5672870   4.3339370  33.5759990  77.6494270   3.6839830  32.7402890
  84.5597880   8.4353820  31.4843120  84.6609860   8.2317810  30.5545100
  83.6599620   8.1812100  31.6890900  83.2015990  10.9540140  36.1790790
  83.4557490  10.9161530  35.2570160  82.2528470  10.8273470  36.1719040
  79.1850210   3.5551620  31.3153260  79.9513480   3.4432980  31.8778690
  79.2624900   2.8589590  30.6630030  78.6811680  11.1372080  39.1020690
  79.4174160  10.5887540  39.3729260  79.0652600  12.0028090  38.9626680
  75.5657160   7.2045650  34.9762200  74.6396940   7.4466790  34.9667610
  76.0313590   8.0319910  34.8546950  77.6869960  10.3218150  48.2906270
  78.4882690  10.6430200  48.7041670  77.1721780   9.9613730  49.0126180
  81.7913990  10.3102390  30.9246260  82.5842600  10.5991220  30.4728050
  81.2718340   9.8794560  30.2458740  86.5234590   6.4298020  48.2381680
  85.9172750   6.4529620  47.4977430  86.2188700   5.6981060  48.7748930
  87.9534960  10.1578310  46.8491090  88.9056710  10.0736330  46.7991330
  87.8063180  10.8220020  47.5224880  75.4067770   2.8091610  47.2342320
  75.9106790   2.2298890  47.8058550  74.6675190   3.0931840  47.7718690
  82.3091390   5.5305800  30.7888610  82.2042030   4.9158150  31.5149990
  82.1415610   5.0071690  30.0051620  82.4605710   4.2162600  46.7677840
  81.6951380   4.7847600  46.6832510  82.6421670   3.9238810  45.8746070
  85.5494120   4.5925830  31.3930600  85.0004220   5.0395130  32.0373340
  86.1713380   4.0875080  31.9168270  89.6029060   5.9467930  47.3252860
  90.3438530   6.2843690  46.8220320  88.8401740   6.1159990  46.7722630
  81.2169240   3.5516750  33.2895900  81.6385660   3.3856620  34.1327290
  81.3420080   2.7416980  32.7951040  83.7296880   2.5754360  30.5373000
  84.2502540   1.8603380  30.1714150  84.3765280   3.2140230  30.8373510
  88.2774720   3.9982760  45.8608070  88.6915740   4.1527840  46.7098490
  87.3425720   4.1237980  46.0233850  83.0389950   3.9503240  43.8304000
  83.4578060   4.7935970  43.6580240  82.1198580   4.0875280  43.6010780
  87.7141750   2.2356610  43.7904350  87.1876970   2.7599230  43.1869490
  88.0573090   2.8684000  44.4214080  80.8897370  10.2556250  44.9461730
  80.3518460  10.9802310  44.6270430  81.1431330   9.7786590  44.1559070
  83.7459580  11.4907460  45.2048380  83.6718280  12.3942600  45.5120750
  82.8438420  11.1719360  45.1770450  84.2944910  10.6565970  32.8274740
  85.1895700  10.9950940  32.8493500  84.3262540   9.9345380  32.1999020
  77.9341070   6.0293020  31.0561740  78.3715940   6.5722690  31.7119320
  78.4188800   5.2039970  31.0658080  75.1486870   8.8182050  38.5082000
  75.4789880   7.9503110  38.2760640  75.5777870   9.0240570  39.3386960
  79.7448790   7.1491060  36.1683970  79.4444330   7.0256030  37.0687880
  79.6386280   6.2899650  35.7599700  75.6377080   9.6852640  41.2463630
  75.2008070   9.8653440  42.0787780  76.2054760  10.4427260  41.1045350
  75.4701510   2.1972870  37.6052510  74.8150350   1.9284510  36.9612210
  76.3079460   2.0877350  37.1554490  89.9590900   5.9121620  43.6317100
  89.1450740   6.3418780  43.8942890  90.3665100   6.5240030  43.0186150
  76.5077440   2.5825440  42.1455850  76.8750480   2.4952840  43.0251870
  75.9388260   1.8191990  42.0462710  90.0166950  10.6640220  37.1585370
  90.6126020  10.3424790  36.4819790  90.2745100  10.1912040  37.9498640
  77.9229520   7.0958130  47.3076000  77.8799150   6.7251040  48.1890460
  78.0540530   8.0335700  47.4477820  81.6235550   8.6517720  42.9085720
  81.3826910   8.9192280  42.0216240  82.5638190   8.8223450  42.9636580
  77.7617550  10.0420380  44.4273780  77.1677870   9.9105080  45.1663820
  77.7541390   9.2058520  43.9615880  90.5679160  11.3135520  40.9883100
  90.1082130  12.0651330  40.6141120  89.9391620  10.5941990  40.9297900
  77.3929780   7.4078760  43.3781820  76.6663840   6.7884050  43.3107770
  77.4538930   7.8019370  42.5079900  80.9974880   9.6223760  40.1631230
  81.5139900   9.0111120  39.6379490  81.6472260  10.1252540  40.6542240
  83.7370380  10.5132250  40.9900210  84.0248190  10.2586550  40.1133220
  84.2493600   9.9609610  41.5805780  75.6759780  10.7253150  36.5878580
  75.5081820  10.0923830  37.2860470  74.8094290  10.9312550  36.2372770
  77.2822480   9.4186380  34.0328720  76.7570100   9.7994410  33.3290680
  77.2067060  10.0437150  34.7538430  83.8042740  11.4348350  48.3568410
  84.7310050  11.1992620  48.4004370  83.7893170  12.2620350  47.8754440
  79.8815450  11.3668760  32.9077970  80.6134270  11.0828040  32.3601860
  80.1409120  11.1282040  33.7977350  79.0430240   7.4833490  32.9124300
  78.4139120   7.9518590  33.4610130  79.1578070   6.6382710  33.3470490
  84.6298000   3.3118170  20.9434770  83.8540100   2.8318610  21.2333340
  85.2810930   2.6323820  20.7690930  78.6463830   3.6237980  21.8210530
  77.8148710   3.3686690  22.2207040  79.2544810   3.6948750  22.5568450
  88.6505430   7.7178360  19.7233900  88.1886960   6.9465600  20.0521070
  89.4630980   7.7444430  20.2286350  78.6265090   7.6578070  22.0168550
  78.9293130   6.7675810  21.8378770  79.3708680   8.2148290  21.7890800
  84.8768740  10.0036370  19.3437890  84.2580180  10.4593870  18.7732330
  85.7320520  10.1587830  18.9427590  84.0706990   5.9875360  20.9504930
  84.0015270   5.0465300  20.7894060  84.8326850   6.0776770  21.5227500
  85.7432090   4.8875610  16.7369800  85.1249360   5.3525060  16.1732520
  86.2555340   5.5803090  17.1539310  80.6063850   4.4151480  23.4153400
  80.2733230   5.0420400  24.0574470  80.7830530   4.9413360  22.6355070
  79.8182950   6.3832280  25.2302580  80.4356950   7.0583360  24.9487030
  78.9576070   6.7920260  25.1390080  75.1115290   5.5732140  14.1109430
  74.7343270   6.0619240  13.3794330  75.3688360   6.2457420  14.7415960
  88.2719280   9.6915820  21.8602400  88.2846440   9.2878110  20.9924660
  87.7194500  10.4663110  21.7563830  89.5664700   6.4132040  16.9492570
  89.4561030   5.4706370  17.0741990  89.5632950   6.7747680  17.8355330
  87.6704720   4.5945660  23.1885010  88.0873510   4.3805770  22.3538470
  88.3944540   4.8518450  23.7593630  85.1084980   2.0397360  16.3055060
  84.1814260   1.9734740  16.5343530  85.2609800   2.9777490  16.1910300
  89.1382270   3.6017660  16.8090310  88.5194690   3.2637210  16.1616610
  89.1206720   2.9577420  17.5169500  80.7141620   2.5662100  19.0874790
  80.3098620   1.8539350  18.5920690  80.8004740   2.2215340  19.9762830
  81.1823320   6.2529660  21.2514000  80.8851610   5.6475130  20.5721780
  82.1323140   6.2906970  21.1403360  89.2708930   9.8261530  24.9137100
  88.7939490  10.6333720  24.7209710  88.5870720   9.1739860  25.0663310
  80.2741750   5.9911350  27.9021800  79.3770280   6.2151320  28.1495200
  80.2994620   6.1146290  26.9533200  87.3146970   2.8404470  13.8163060
  87.7540250   2.0026900  13.6700880  88.0275390   3.4733870  13.9027200
  79.1012970   2.8624670  26.4779170  78.9620740   3.7347470  26.8466570
  78.2194330   2.5197480  26.3327110  85.4242350   7.7800540  17.7844300
  85.8638260   8.5224870  17.3699690  85.3629240   8.0227110  18.7083260
  80.8993320   8.8046370  28.6864320  80.8708750   9.2089320  27.8192750
  80.7358290   7.8756730  28.5235920  75.0531620   4.6322220  22.3950080
  75.1312040   4.7670990  21.4505800  75.6673300   3.9238110  22.5878200
  76.2979250   6.3322410  18.8056260  75.8907330   6.4737000  17.9509860
  77.1892260   6.0482570  18.6027470  86.1158130  10.4814320  25.7123310
  86.6302800  10.3922330  26.5145740  85.2727210  10.8274020  26.0051220
  88.0912530  10.7669660  15.1407310  87.9313670  10.4772600  16.0389140
  87.9259240   9.9909790  14.6052540  80.5700910  10.5468190  16.9178930
  80.3943390   9.6303730  16.7046730  79.7156650  10.9055480  17.1576730
  87.7938660   8.2757220  13.7005310  87.1003820   8.2734510  13.0407590
  88.5361520   7.8516540  13.2699480  87.3588590   9.9019930  17.7753800
  87.8145540   9.1209310  18.0892420  87.6981110  10.6126750  18.3194980
  75.1091140   5.6736390  24.9344540  75.2722180   5.2041750  24.1163910
  75.5743590   5.1659950  25.5993380  76.6830120   5.0487820  27.0940350
  76.2984910   4.4081490  27.6923310  76.9942310   5.7523940  27.6635080
  82.8327260   1.8964360  22.5748970  83.1997390   1.4222930  23.3210310
  82.6432320   2.7705930  22.9157310  79.1508420   5.1433990  15.4900030
  78.3770680   4.6031610  15.3298750  79.8803050   4.6240600  15.1517790
  89.9096400   4.1399350  21.2826420  90.6295520   4.6354640  20.8922530
  89.7078220   3.4617240  20.6380290  85.2915200   4.2108410  27.1695420
  85.2252510   3.2904080  26.9153010  84.6620340   4.3083850  27.8840060
  79.1945820   4.8114370  19.1278840  79.7124490   4.0082630  19.0735730
  78.7429840   4.7493510  19.9695670  84.0815320   6.0780650  14.4006140
  84.4231020   6.8222880  13.9049460  83.2528030   6.3911770  14.7630970
  79.8803480   2.2359980  28.9244090  79.5803620   2.3817160  28.0271910
  80.6514720   1.6765270  28.8317480  85.2231930   7.0328980  26.9199220
  85.2376470   6.1009940  26.7018130  84.5157030   7.1188740  27.5588990
  86.9642730   5.3996490  19.7651650  87.3166550   4.8024620  19.1053020
  86.0805060   5.0740720  19.9359900  83.0506010   6.1594180  17.1722060
  83.7377140   6.7063390  17.5529650  82.2638430   6.7034910  17.2071670
  75.1898410   1.7767000  12.6639140  76.0593260   2.0591800  12.9475060
  74.6988730   2.5902870  12.5487950  82.3533220   3.1640210  16.7847420
  82.8096000   3.9745460  17.0107610  82.0021430   2.8463350  17.6165910
  84.6565830   8.6746550  24.0139720  85.3008050   8.8805930  24.6913140
  85.0195270   7.9134950  23.5610570  85.9297910   6.6778900  22.7317170
  86.5720140   5.9772060  22.8449340  86.4547260   7.4577340  22.5514060
  89.7753630   6.9627520  12.4556310  89.5491210   6.2457960  13.0480950
  89.3849830   6.7139960  11.6178060  87.7035530   7.4773800  25.9353230
  88.0391770   8.0640490  26.6131150  86.7835870   7.3466510  26.1651020
  75.5569660  10.9894380  13.2300770  75.9167300  11.5883720  12.5758040
  75.4162000  11.5354270  14.0035800  89.3569880   4.8799460  14.1170470
  89.0691580   5.3412150  14.9048350  90.1522050   4.4197230  14.3854690
  75.5411520   9.2549240  27.7043170  75.6502640   8.3143980  27.5638560
  74.8892080   9.5203990  27.0556900  83.5324110   7.5265130  29.1041290
  83.2120980   6.8074370  29.6486980  82.8582470   8.2020200  29.1777350
  81.5738280   8.3725580  14.0474440  81.5648380   9.1055270  13.4318950
  80.6536640   8.1257160  14.1401400  77.1744920   3.5940470  14.7921200
  76.5672870   4.3339370  14.8016500  77.6494270   3.6839830  13.9659400
  84.5597880   8.4353820  12.7099630  84.6609860   8.2317810  11.7801610
  83.6599620   8.1812100  12.9147410  83.2015990  10.9540140  17.4047300
  83.4557490  10.9161530  16.4826670  82.2528470  10.8273470  17.3975550
  79.1850210   3.5551620  12.5409770  79.9513480   3.4432980  13.1035200
  79.2624900   2.8589590  11.8886540  78.6811680  11.1372080  20.3277200
  79.4174160  10.5887540  20.5985770  79.0652600  12.0028090  20.1883190
  75.5657160   7.2045650  16.2018710  74.6396940   7.4466790  16.1924120
  76.0313590   8.0319910  16.0803460  77.6869960  10.3218150  29.5162780
  78.4882690  10.6430200  29.9298180  77.1721780   9.9613730  30.2382690
  81.7913990  10.3102390  12.1502770  82.5842600  10.5991220  11.6984560
  81.2718340   9.8794560  11.4715250  86.5234590   6.4298020  29.4638190
  85.9172750   6.4529620  28.7233940  86.2188700   5.6981060  30.0005440
  87.9534960  10.1578310  28.0747600  88.9056710  10.0736330  28.0247840
  87.8063180  10.8220020  28.7481390  75.4067770   2.8091610  28.4598830
  75.9106790   2.2298890  29.0315060  74.6675190   3.0931840  28.9975200
  82.3091390   5.5305800  12.0145120  82.2042030   4.9158150  12.7406500
  82.1415610   5.0071690  11.2308130  82.4605710   4.2162600  27.9934350
  81.6951380   4.7847600  27.9089020  82.6421670   3.9238810  27.1002580
  85.5494120   4.5925830  12.6187110  85.0004220   5.0395130  13.2629850
  86.1713380   4.0875080  13.1424780  89.6029060   5.9467930  28.5509370
  90.3438530   6.2843690  28.0476830  88.8401740   6.1159990  27.9979140
  81.2169240   3.5516750  14.5152410  81.6385660   3.3856620  15.3583800
  81.3420080   2.7416980  14.0207550  83.7296880   2.5754360  11.7629510
  84.2502540   1.8603380  11.3970660  84.3765280   3.2140230  12.0630020
  88.2774720   3.9982760  27.0864580  88.6915740   4.1527840  27.9355000
  87.3425720   4.1237980  27.2490360  83.0389950   3.9503240  25.0560510
  83.4578060   4.7935970  24.8836750  82.1198580   4.0875280  24.8267290
  87.7141750   2.2356610  25.0160860  87.1876970   2.7599230  24.4126000
  88.0573090   2.8684000  25.6470590  80.8897370  10.2556250  26.1718240
  80.3518460  10.9802310  25.8526940  81.1431330   9.7786590  25.3815580
  83.7459580  11.4907460  26.4304890  83.6718280  12.3942600  26.7377260
  82.8438420  11.1719360  26.4026960  84.2944910  10.6565970  14.0531250
  85.1895700  10.9950940  14.0750010  84.3262540   9.9345380  13.4255530
  77.9341070   6.0293020  12.2818250  78.3715940   6.5722690  12.9375830
  78.4188800   5.2039970  12.2914590  75.1486870   8.8182050  19.7338510
  75.4789880   7.9503110  19.5017150  75.5777870   9.0240570  20.5643470
  79.7448790   7.1491060  17.3940480  79.4444330   7.0256030  18.2944390
  79.6386280   6.2899650  16.9856210  75.6377080   9.6852640  22.4720140
  75.2008070   9.8653440  23.3044290  76.2054760  10.4427260  22.3301860
  75.4701510   2.1972870  18.8309020  74.8150350   1.9284510  18.1868720
  76.3079460   2.0877350  18.3811000  89.9590900   5.9121620  24.8573610
  89.1450740   6.3418780  25.1199400  90.3665100   6.5240030  24.2442660
  76.5077440   2.5825440  23.3712360  76.8750480   2.4952840  24.2508380
  75.9388260   1.8191990  23.2719220  90.0166950  10.6640220  18.3841880
  90.6126020  10.3424790  17.7076300  90.2745100  10.1912040  19.1755150
  77.9229520   7.0958130  28.5332510  77.8799150   6.7251040  29.4146970
  78.0540530   8.0335700  28.6734330  81.6235550   8.6517720  24.1342230
  81.3826910   8.9192280  23.2472750  82.5638190   8.8223450  24.1893090
  77.7617550  10.0420380  25.6530290  77.1677870   9.9105080  26.3920330
  77.7541390   9.2058520  25.1872390  90.5679160  11.3135520  22.2139610
  90.1082130  12.0651330  21.8397630  89.9391620  10.5941990  22.1554410
  77.3929780   7.4078760  24.6038330  76.6663840   6.7884050  24.5364280
  77.4538930   7.8019370  23.7336410  80.9974880   9.6223760  21.3887740
  81.5139900   9.0111120  20.8636000  81.6472260  10.1252540  21.8798750
  83.7370380  10.5132250  22.2156720  84.0248190  10.2586550  21.3389730
  84.2493600   9.9609610  22.8062290  75.6759780  10.7253150  17.8135090
  75.5081820  10.0923830  18.5116980  74.8094290  10.9312550  17.4629280
  77.2822480   9.4186380  15.2585230  76.7570100   9.7994410  14.5547190
  77.2067060  10.0437150  15.9794940  83.8042740  11.4348350  29.5824920
  84.7310050  11.1992620  29.6260880  83.7893170  12.2620350  29.1010950
  79.8815450  11.3668760  14.1334480  80.6134270  11.0828040  13.5858370
  80.1409120  11.1282040  15.0233860  79.0430240   7.4833490  14.1380810
  78.4139120   7.9518590  14.6866640  79.1578070   6.6382710  14.5727000
  84.6298000   3.3118170   2.1691280  83.8540100   2.8318610   2.4589850
  85.2810930   2.6323820   1.9947440  78.6463830   3.6237980   3.0467040
  77.8148710   3.3686690   3.4463550  79.2544810   3.6948750   3.7824960
  78.6265090   7.6578070   3.2425060  78.9293130   6.7675810   3.0635280
  79.3708680   8.2148290   3.0147310  84.0706990   5.9875360   2.1761440
  84.0015270   5.0465300   2.0150570  84.8326850   6.0776770   2.7484010
  80.6063850   4.4151480   4.6409910  80.2733230   5.0420400   5.2830980
  80.7830530   4.9413360   3.8611580  79.8182950   6.3832280   6.4559090
  80.4356950   7.0583360   6.1743540  78.9576070   6.7920260   6.3646590
  88.2719280   9.6915820   3.0858910  88.2846440   9.2878110   2.2181170
  87.7194500  10.4663110   2.9820340  87.6704720   4.5945660   4.4141520
  88.0873510   4.3805770   3.5794980  88.3944540   4.8518450   4.9850140
  81.1823320   6.2529660   2.4770510  80.8851610   5.6475130   1.7978290
  82.1323140   6.2906970   2.3659870  89.2708930   9.8261530   6.1393610
  88.7939490  10.6333720   5.9466220  88.5870720   9.1739860   6.2919820
  80.2741750   5.9911350   9.1278310  79.3770280   6.2151320   9.3751710
  80.2994620   6.1146290   8.1789710  79.1012970   2.8624670   7.7035680
  78.9620740   3.7347470   8.0723080  78.2194330   2.5197480   7.5583620
  80.8993320   8.8046370   9.9120830  80.8708750   9.2089320   9.0449260
  80.7358290   7.8756730   9.7492430  75.0531620   4.6322220   3.6206590
  75.1312040   4.7670990   2.6762310  75.6673300   3.9238110   3.8134710
  86.1158130  10.4814320   6.9379820  86.6302800  10.3922330   7.7402250
  85.2727210  10.8274020   7.2307730  75.1091140   5.6736390   6.1601050
  75.2722180   5.2041750   5.3420420  75.5743590   5.1659950   6.8249890
  76.6830120   5.0487820   8.3196860  76.2984910   4.4081490   8.9179820
  76.9942310   5.7523940   8.8891590  82.8327260   1.8964360   3.8005480
  83.1997390   1.4222930   4.5466820  82.6432320   2.7705930   4.1413820
  89.9096400   4.1399350   2.5082930  90.6295520   4.6354640   2.1179040
  89.7078220   3.4617240   1.8636800  85.2915200   4.2108410   8.3951930
  85.2252510   3.2904080   8.1409520  84.6620340   4.3083850   9.1096570
  79.8803480   2.2359980  10.1500600  79.5803620   2.3817160   9.2528420
  80.6514720   1.6765270  10.0573990  85.2231930   7.0328980   8.1455730
  85.2376470   6.1009940   7.9274640  84.5157030   7.1188740   8.7845500
  84.6565830   8.6746550   5.2396230  85.3008050   8.8805930   5.9169650
  85.0195270   7.9134950   4.7867080  85.9297910   6.6778900   3.9573680
  86.5720140   5.9772060   4.0705850  86.4547260   7.4577340   3.7770570
  87.7035530   7.4773800   7.1609740  88.0391770   8.0640490   7.8387660
  86.7835870   7.3466510   7.3907530  75.5411520   9.2549240   8.9299680
  75.6502640   8.3143980   8.7895070  74.8892080   9.5203990   8.2813410
  83.5324110   7.5265130  10.3297800  83.2120980   6.8074370  10.8743490
  82.8582470   8.2020200  10.4033860  77.6869960  10.3218150  10.7419290
  78.4882690  10.6430200  11.1554690  77.1721780   9.9613730  11.4639200
  86.5234590   6.4298020  10.6894700  85.9172750   6.4529620   9.9490450
  86.2188700   5.6981060  11.2261950  87.9534960  10.1578310   9.3004110
  88.9056710  10.0736330   9.2504350  87.8063180  10.8220020   9.9737900
  75.4067770   2.8091610   9.6855340  75.9106790   2.2298890  10.2571570
  74.6675190   3.0931840  10.2231710  82.4605710   4.2162600   9.2190860
  81.6951380   4.7847600   9.1345530  82.6421670   3.9238810   8.3259090
  89.6029060   5.9467930   9.7765880  90.3438530   6.2843690   9.2733340
  88.8401740   6.1159990   9.2235650  88.2774720   3.9982760   8.3121090
  88.6915740   4.1527840   9.1611510  87.3425720   4.1237980   8.4746870
  83.0389950   3.9503240   6.2817020  83.4578060   4.7935970   6.1093260
  82.1198580   4.0875280   6.0523800  87.7141750   2.2356610   6.2417370
  87.1876970   2.7599230   5.6382510  88.0573090   2.8684000   6.8727100
  80.8897370  10.2556250   7.3974750  80.3518460  10.9802310   7.0783450
  81.1431330   9.7786590   6.6072090  83.7459580  11.4907460   7.6561400
  83.6718280  12.3942600   7.9633770  82.8438420  11.1719360   7.6283470
  75.6377080   9.6852640   3.6976650  75.2008070   9.8653440   4.5300800
  76.2054760  10.4427260   3.5558370  89.9590900   5.9121620   6.0830120
  89.1450740   6.3418780   6.3455910  90.3665100   6.5240030   5.4699170
  76.5077440   2.5825440   4.5968870  76.8750480   2.4952840   5.4764890
  75.9388260   1.8191990   4.4975730  77.9229520   7.0958130   9.7589020
  77.8799150   6.7251040  10.6403480  78.0540530   8.0335700   9.8990840
  81.6235550   8.6517720   5.3598740  81.3826910   8.9192280   4.4729260
  82.5638190   8.8223450   5.4149600  77.7617550  10.0420380   6.8786800
  77.1677870   9.9105080   7.6176840  77.7541390   9.2058520   6.4128900
  90.5679160  11.3135520   3.4396120  90.1082130  12.0651330   3.0654140
  89.9391620  10.5941990   3.3810920  77.3929780   7.4078760   5.8294840
  76.6663840   6.7884050   5.7620790  77.4538930   7.8019370   4.9592920
  80.9974880   9.6223760   2.6144250  81.5139900   9.0111120   2.0892510
  81.6472260  10.1252540   3.1055260  83.7370380  10.5132250   3.4413230
  84.0248190  10.2586550   2.5646240  84.2493600   9.9609610   4.0318800
  83.8042740  11.4348350  10.8081430  84.7310050  11.1992620  10.8517390
  83.7893170  12.2620350  10.3267460  67.7236470  95.4056600  94.1599460
  67.6430520  94.4911210  93.8891170  67.3100890  95.9023670  93.4539170
  58.2812290  92.4557320  90.7026880  57.3928990  92.7973290  90.6006760
  58.5653480  92.2557640  89.8107710  60.4573680  91.0388820  91.7365260
  60.5640430  91.9392550  92.0434020  59.5466040  90.9906790  91.4459910
  70.1092790  90.1613630  93.2076160  70.9302410  89.6710200  93.2501640
  70.1426870  90.7511290  93.9608000  63.9460730  87.8465980  94.6668900
  64.2535710  87.2912870  93.9504400  63.0161430  87.9810440  94.4841890
  66.3341490  95.9114810  91.4029020  65.4070770  95.8452190  91.6317490
  66.4866310  96.8494940  91.2884260  66.3210570  92.1831810  88.3996180
  65.3814240  92.3445770  88.4848640  66.6393830  92.9017490  87.8532170
  61.9398130  96.4379550  94.1848750  61.5355130  95.7256800  93.6894650
  62.0261250  96.0932790  95.0736790  72.1220620  87.9664730  87.2278060
  71.8093280  88.0591560  88.1277130  72.8833090  88.5445760  87.1775490
  58.6402760  95.3324530  91.6855400  58.5200360  96.0586620  91.0736670
  58.3303650  94.5627440  91.2083310  61.1066420  88.6759600  95.0679070
  60.6634570  89.4569140  94.7363590  61.6651410  88.9989490  95.7750010
  64.2225240  88.2970300  89.9484900  63.5979420  88.2930170  90.6738210
  64.1355360  87.4301260  89.5520870  60.8980640  93.7993170  92.7960320
  60.6721560  93.5830340  93.7006940  60.1173170  94.2321630  92.4506290
  68.1278400  93.8056540  91.3950970  67.5287290  94.5292340  91.2114590
  68.6758010  93.7433320  90.6127420  66.7343270  92.4420080  93.4254250
  67.1272840  92.7592280  92.6122940  67.0960120  91.5631960  93.5398770
  55.9577670  92.9741000  86.8587170  55.8752340  93.9171760  87.0002160
  55.6060730  92.8315910  85.9799520  63.7575800  91.7080030  95.9257520
  63.7611860  91.2669980  95.0762060  64.6526920  92.0297360  96.0329340
  59.6078180  91.5906520  94.8851730  59.2678230  92.0681750  95.6418780
  58.8455500  91.1371640  94.5252830  63.8195950  92.7092110  88.9164280
  63.9408770  92.6678590  89.8650100  63.4344460  93.5716260  88.7611010
  62.8317450  95.0193250  88.3147580  62.2634350  94.5711500  87.6883490
  63.5406450  95.3786030  87.7812730  56.9224260  90.5125500  93.8016400
  56.6371180  90.1481170  94.6395020  56.8603120  89.7805960  93.1879540
  66.5962850  89.4054760  90.5229770  65.7827460  88.9067930  90.4475080
  66.4024800  90.2453010  90.1066120  69.3111240  93.7774410  88.8191930
  70.1990860  94.0891640  88.6443270  69.2816330  92.9046660  88.4272510
  71.5825510  95.0886250  88.2871790  71.4989230  95.5200470  87.4368230
  72.3019700  95.5484600  88.7198610  56.4154920  95.6484450  87.7613100
  57.2849770  95.9309250  88.0449020  55.9245240  96.4620320  87.6461910
  59.4801510  87.3795310  92.3543900  59.3516140  87.3713210  93.3028820
  58.6563530  87.7178400  92.0034910  71.3396250  90.5865680  90.3739610
  70.7109410  90.6911350  89.6597840  70.8448170  90.8062460  91.1633490
  63.3080280  92.8651630  91.7897490  62.5996430  93.3337970  92.2311100
  63.5924760  92.2073640  92.4242680  67.3395710  89.5902290  93.2293280
  67.2163490  89.6088420  92.2802790  68.2880270  89.6381230  93.3491680
  61.5115300  91.1736710  89.1648200  62.3605830  91.6106860  89.0988390
  61.1446570  91.4856970  89.9920260  70.4325080  95.7449470  94.0779770
  69.4915220  95.7599700  94.2527460  70.7469150  94.9585430  94.5240070
  59.1053480  94.8594140  88.3216620  59.1857070  93.9121650  88.4334020
  59.9973230  95.1901020  88.4277280  64.9553390  96.4471810  86.8603470
  65.4759050  95.7320830  86.4944620  65.6021790  97.0857680  87.1603980
  61.3384650  93.4967430  86.5584530  61.1373710  92.6334790  86.9197870
  61.1676700  93.4100790  85.6206130  68.8172960  88.3075660  89.0871410
  69.0975250  87.4643560  89.4430830  68.0438690  88.5398770  89.6010160
  60.1367450  90.5968050  86.5462410  60.4393350  90.6035480  85.6381560
  60.8762040  90.2465910  87.0430070  63.3552380  89.5402670  87.5318610
  63.0074380  88.8626660  86.9521060  63.5565150  89.0792180  88.3462000
  56.6958020  96.0690320  93.9282980  56.0406860  95.8001960  93.2842680
  57.5335970  95.9594800  93.4784960  69.6448460  90.8631610  88.1501470
  70.0633340  90.6762590  87.3098130  69.3384520  90.0110660  88.4604400
  73.1438190  95.7755750  91.8477270  72.7681790  95.0083680  91.4158560
  72.4141310  96.1578450  92.3352200  55.9096100  93.2789250  89.8708310
  55.0060180  93.5419450  89.6959970  56.3936720  93.5500420  89.0908270
  72.4189150  94.0013240  95.1484510  72.9426630  93.5075890  94.5174680
  73.0048570  94.1363600  95.8932080  58.4523310  92.3354790  87.7802690
  59.1615010  91.9138010  87.2949970  57.7363250  92.4030020  87.1486040
  58.0997470  88.3894120  86.8205340  58.8225600  88.9303060  87.1386560
  58.3721990  88.1157540  85.9446880  71.9089120  93.2586590  91.0876920
  72.4048240  93.0257460  91.8725800  71.7105190  92.4198430  90.6714560
  73.3376280  91.8947540  93.6214600  73.2275560  91.7403580  94.5596870
  74.0983870  91.3668480  93.3790010  74.2266550  89.7255460  86.8620740
  75.1515860  89.5936640  86.6539030  74.2042340  89.8048280  87.8157190
  74.3005040  90.4966120  89.4877450  73.5056540  90.4311240  90.0170360
  74.5048320  91.4316760  89.4762800  70.7324970  88.8263000  95.9376280
  71.1733060  88.7708100  95.0897880  70.4632560  89.7421010  96.0086460
  72.5963540  88.4578240  93.9485100  72.5351940  87.5139460  93.8016120
  73.3755570  88.5658330  94.4938560  57.5244310  88.4287380  90.4140910
  58.2823670  88.5416260  89.8404940  57.0621480  89.2656580  90.3684340
  64.0658120  90.5426650  93.4043220  63.2532630  90.1683540  93.0639100
  64.5699760  89.7871730  93.7064410  68.5683100  87.2069100  94.6426290
  69.1712470  87.7789310  95.1174810  67.8276090  87.7708540  94.4200190
  71.7117700  87.6090660  89.9166570  71.9068330  88.5074110  90.1834000
  70.9247570  87.3777740  90.4099520  59.8969460  88.9551430  88.9542880
  60.4262220  88.1681230  88.8250830  60.5297780  89.6342620  89.1878410
  62.0907300  88.6926570  92.0088270  61.4610040  87.9913880  92.1758400
  61.5512440  89.4530700  91.7921430  67.7236470  95.4056600  75.3855970
  67.6430520  94.4911210  75.1147680  67.3100890  95.9023670  74.6795680
  65.8554510  97.1835620  77.2665240  65.0796610  96.7036060  77.5563810
  66.5067440  96.5041270  77.0921400  58.2812290  92.4557320  71.9283390
  57.3928990  92.7973290  71.8263270  58.5653480  92.2557640  71.0364220
  56.2445300  95.0562970  77.8123090  56.8161410  94.2885170  77.8126730
  56.2446840  95.3551730  76.9029700  57.4870170  90.4647330  79.5992020
  57.3073010  89.5673080  79.8794780  57.0850250  91.0119200  80.2738970
  66.3268670  92.6663190  77.5004330  66.7033490  91.7935070  77.3878000
  66.2288180  93.0021890  76.6094770  60.4573680  91.0388820  72.9621770
  60.5640430  91.9392550  73.2690530  59.5466040  90.9906790  72.6716420
  70.1092790  90.1613630  74.4332670  70.9302410  89.6710200  74.4758150
  70.1426870  90.7511290  75.1864510  58.1056840  92.9607830  78.2074360
  58.7866950  93.2246200  78.8261760  57.7904890  92.1208700  78.5412370
  62.2981410  94.0075190  77.2946950  62.8059630  94.5056160  77.9351970
  62.8294650  93.2310390  77.1186310  74.3992340  92.1780380  80.9976300
  73.6944510  92.5662090  80.4791410  74.6650260  92.8730670  81.5997230
  60.5817510  88.6473750  81.5610370  60.5835950  89.1646140  80.7556270
  59.7521820  88.1703930  81.5380300  70.3454270  92.1014010  77.2060210
  69.6409840  92.3898900  77.7863320  70.7066430  92.9114120  76.8459770
  60.2632840  90.3583710  79.5680820  60.6049650  91.2025760  79.2734690
  59.3248650  90.5067450  79.6846160  73.4141190  91.5468800  77.5969420
  72.4666100  91.5807780  77.7284850  73.7391180  92.3607750  77.9818780
  63.9460730  87.8465980  75.8925410  64.2535710  87.2912870  75.1760910
  63.0161430  87.9810440  75.7098400  66.3341490  95.9114810  72.6285530
  65.4070770  95.8452190  72.8574000  66.4866310  96.8494940  72.5140770
  66.3210570  92.1831810  69.6252690  65.3814240  92.3445770  69.7105150
  66.6393830  92.9017490  69.0788680  69.8065340  93.6519650  80.5486590
  69.3936520  94.4773360  80.8026580  69.0741290  93.0664690  80.3562950
  61.9398130  96.4379550  75.4105260  61.5355130  95.7256800  74.9151160
  62.0261250  96.0932790  76.2993300  60.6526750  93.2122760  79.1904300
  61.2041340  93.3218100  78.4157550  61.1670260  93.5860360  79.9059530
  72.1220620  87.9664730  68.4534570  71.8093280  88.0591560  69.3533640
  72.8833090  88.5445760  68.4032000  58.6402760  95.3324530  72.9111910
  58.5200360  96.0586620  72.2993180  58.3303650  94.5627440  72.4339820
  73.3321910  92.7036230  84.4308710  72.7166180  93.2115900  83.9024170
  73.0118330  91.8034560  84.3734650  61.1066420  88.6759600  76.2935580
  60.6634570  89.4569140  75.9620100  61.6651410  88.9989490  77.0006520
  65.3936230  91.5428120  81.8970900  64.9315600  91.7511140  82.7090840
  64.9914340  90.7287470  81.5941570  70.3940740  92.7637070  83.0267560
  69.5434330  92.4642820  83.3476630  70.2342530  93.0079080  82.1151380
  67.4890450  94.2638820  85.1266350  67.8143860  93.4302570  84.7868580
  68.2770780  94.7867340  85.2744680  64.2225240  88.2970300  71.1741410
  63.5979420  88.2930170  71.8994720  64.1355360  87.4301260  70.7777380
  63.1442320  89.2206930  78.1525180  63.4414650  90.1269760  78.0717200
  63.6927880  88.7325710  77.5384750  60.8980640  93.7993170  74.0216830
  60.6721560  93.5830340  74.9263450  60.1173170  94.2321630  73.6762800
  68.1278400  93.8056540  72.6207480  67.5287290  94.5292340  72.4371100
  68.6758010  93.7433320  71.8383930  63.3379850  94.6978750  84.6877100
  63.2423450  93.7573480  84.5377500  64.1811830  94.9193820  84.2925170
  66.7343270  92.4420080  74.6510760  67.1272840  92.7592280  73.8379450
  67.0960120  91.5631960  74.7655280  58.4690390  91.1092420  82.8410880
  58.0753780  91.9567630  83.0483660  57.7808790  90.4718790  83.0319520
  65.0435440  91.1927390  85.9107620  64.3533760  90.9999590  86.5453710
  65.7867740  91.4762030  86.4431920  55.7707440  89.0320880  76.8740960
  55.4820490  89.6023740  77.5865940  56.5153200  88.5525330  77.2372190
  55.9577670  92.9741000  68.0843680  55.8752340  93.9171760  68.2258670
  55.6060730  92.8315910  67.2056030  67.3198410  95.0325830  78.7461540
  66.5879530  95.5412640  79.0951640  66.9222750  94.2155810  78.4450320
  63.7575800  91.7080030  77.1514030  63.7611860  91.2669980  76.3018570
  64.6526920  92.0297360  77.2585850  59.6078180  91.5906520  76.1108240
  59.2678230  92.0681750  76.8675290  58.8455500  91.1371640  75.7509340
  63.8195950  92.7092110  70.1420790  63.9408770  92.6678590  71.0906610
  63.4344460  93.5716260  69.9867520  67.7824320  90.4859510  78.1584480
  67.7997060  90.9368160  79.0026330  67.5339900  89.5865150  78.3717920
  62.8317450  95.0193250  69.5404090  62.2634350  94.5711500  68.9140000
  63.5406450  95.3786030  69.0069240  71.2095070  87.8991690  83.9970860
  71.5340840  87.1681350  84.5228840  71.2451580  87.5805330  83.0951850
  64.0583770  95.7681810  78.8979440  64.4253900  95.2940380  79.6440780
  63.8688830  96.6423380  79.2387780  56.9224260  90.5125500  75.0272910
  56.6371180  90.1481170  75.8651530  56.8603120  89.7805960  74.4136050
  61.8483140  94.8090450  81.2163650  61.5440210  95.6882430  81.4414010
  62.8029600  94.8690240  81.2521090  66.5962850  89.4054760  71.7486280
  65.7827460  88.9067930  71.6731590  66.4024800  90.2453010  71.3322630
  69.3111240  93.7774410  70.0448440  70.1990860  94.0891640  69.8699780
  69.2816330  92.9046660  69.6529020  57.9046870  95.6493190  82.3635010
  57.5461810  96.3147040  82.9508350  57.6101430  94.8176740  82.7347630
  61.1059990  96.1077430  85.2474560  60.8060130  96.2534610  84.3502380
  61.8771230  95.5482720  85.1547950  71.5825510  95.0886250  69.5128300
  71.4989230  95.5200470  68.6624740  72.3019700  95.5484600  69.9455120
  56.4154920  95.6484450  68.9869610  57.2849770  95.9309250  69.2705530
  55.9245240  96.4620320  68.8718420  59.4801510  87.3795310  73.5800410
  59.3516140  87.3713210  74.5285330  58.6563530  87.7178400  73.2291420
  56.4795440  89.1386430  83.0407110  55.7653960  89.3383350  83.6459720
  56.8990480  88.3626000  83.4121910  67.9734220  91.6308740  80.7908560
  68.3415040  90.8103950  81.1188130  67.1132420  91.6910630  81.2064210
  71.3396250  90.5865680  71.5996120  70.7109410  90.6911350  70.8854350
  70.8448170  90.8062460  72.3890000  63.3080280  92.8651630  73.0154000
  62.5996430  93.3337970  73.4567610  63.5924760  92.2073640  73.6499190
  64.9336210  94.2848330  81.0146530  65.4321460  94.7594150  81.6798380
  65.0759160  93.3611850  81.2216560  67.3395710  89.5902290  74.4549790
  67.2163490  89.6088420  73.5059300  68.2880270  89.6381230  74.5748190
  61.5115300  91.1736710  70.3904710  62.3605830  91.6106860  70.3244900
  61.1446570  91.4856970  71.2176770  72.1403070  90.5016290  81.8574920
  71.6376670  91.2421690  82.1968730  72.9559730  90.8900290  81.5411710
  70.4325080  95.7449470  75.3036280  69.4915220  95.7599700  75.4783970
  70.7469150  94.9585430  75.7496580  59.1053480  94.8594140  69.5473130
  59.1857070  93.9121650  69.6590530  59.9973230  95.1901020  69.6533790
  56.6324280  96.6809060  84.7829300  57.1363300  96.1016340  85.3545530
  55.8931700  96.9649290  85.3205670  58.6647360  94.8238650  85.6779370
  58.7052700  94.5252520  86.5864600  59.5192860  95.2246260  85.5186890
  60.6053170  93.4030750  83.6453860  60.0749630  92.9121700  83.0177200
  61.2741240  93.8314950  83.1111790  64.9553390  96.4471810  68.0859980
  65.4759050  95.7320830  67.7201130  65.6021790  97.0857680  68.3860490
  69.9753400  95.2096370  85.4134200  70.5574170  94.4548690  85.3254680
  70.1515170  95.7403810  84.6365680  61.0925470  90.3693120  83.7251150
  60.9982340  89.7513870  83.0002020  60.5122860  91.0959410  83.4981060
  63.8586910  88.9266360  80.7578540  63.4104210  88.9490620  79.9124090
  63.2252110  88.5285380  81.3548840  66.6010360  95.5536870  82.7628820
  66.7206570  94.9578010  83.5023660  67.4604360  95.5906560  82.3430120
  68.9398260  96.1074060  81.3391330  68.4133480  96.6316680  80.7356470
  69.2829600  96.7401450  81.9701060  61.3384650  93.4967430  67.7841040
  61.1373710  92.6334790  68.1454380  61.1676700  93.4100790  66.8462640
  63.3679130  92.0958220  84.0204640  63.9578820  91.7874070  84.7082460
  62.5499370  91.6237970  84.1764540  68.1872560  91.7124030  84.2537660
  67.4988080  91.0505570  84.1887650  68.9078580  91.2662300  84.6986120
  68.8172960  88.3075660  70.3127920  69.0975250  87.4643560  70.6687340
  68.0438690  88.5398770  70.8266670  60.1367450  90.5968050  67.7718920
  60.4393350  90.6035480  66.8638070  60.8762040  90.2465910  68.2686580
  63.3552380  89.5402670  68.7575120  63.0074380  88.8626660  68.1777570
  63.5565150  89.0792180  69.5718510  56.6958020  96.0690320  75.1539490
  56.0406860  95.8001960  74.5099190  57.5335970  95.9594800  74.7041470
  69.6448460  90.8631610  69.3757980  70.0633340  90.6762590  68.5354640
  69.3384520  90.0110660  69.6860910  73.1438190  95.7755750  73.0733780
  72.7681790  95.0083680  72.6415070  72.4141310  96.1578450  73.5608710
  57.7333950  96.4542890  79.6942830  58.1006990  96.3670290  80.5738850
  57.1644770  95.6909440  79.5949690  72.5337810  94.9227270  82.7073300
  72.3023900  94.6940020  81.8071250  72.7942360  95.8426820  82.6618190
  57.2849950  93.3651980  83.6001250  56.3906000  93.3318740  83.9394960
  57.8247500  93.5638770  84.3652500  70.9725880  90.1483700  85.4853000
  71.8496060  90.1567100  85.8687000  70.9846720  89.4114540  84.8745350
  55.9096100  93.2789250  71.0964820  55.0060180  93.5419450  70.9216480
  56.3936720  93.5500420  70.3164780  72.4189150  94.0013240  76.3741020
  72.9426630  93.5075890  75.7431190  73.0048570  94.1363600  77.1188590
  72.5978870  94.0853110  79.8960570  71.6481580  94.0516650  80.0105560
  72.7791880  94.9953220  79.6610340  58.4523310  92.3354790  69.0059200
  59.1615010  91.9138010  68.5206480  57.7363250  92.4030020  68.3742550
  58.0997470  88.3894120  68.0461850  58.8225600  88.9303060  68.3643070
  58.3721990  88.1157540  67.1703390  71.9089120  93.2586590  72.3133430
  72.4048240  93.0257460  73.0982310  71.7105190  92.4198430  71.8971070
  57.7889660  87.6400310  77.9484470  58.4365850  87.0897690  77.5079630
  58.2091500  87.8943460  78.7700280  73.3376280  91.8947540  74.8471110
  73.2275560  91.7403580  75.7853380  74.0983870  91.3668480  74.6046520
  71.6842000  87.8341670  81.3054110  72.3214220  88.4475810  81.6713300
  71.8316890  87.8702330  80.3603340  74.2266550  89.7255460  68.0877250
  75.1515860  89.5936640  67.8795540  74.2042340  89.8048280  69.0413700
  74.3005040  90.4966120  70.7133960  73.5056540  90.4311240  71.2426870
  74.5048320  91.4316760  70.7019310  57.5421660  87.7955980  80.6909790
  57.1936480  88.2519800  81.4567970  57.2109360  86.9013110  80.7732220
  65.0546480  88.9867860  84.2129210  64.9935370  89.5789690  84.9624620
  65.9946860  88.8793820  84.0679470  67.6921040  88.6437920  83.8521500
  68.3061450  88.9617210  83.1902580  68.2370600  88.1586510  84.4717360
  58.2142300  87.3232180  83.9660560  58.7625290  87.1420230  83.2026670
  58.2797610  86.5326290  84.5016870  68.4329080  87.2070060  80.1790790
  67.5588920  87.5405170  79.9763720  68.3239830  86.7343240  81.0042660
  69.3401060  89.4140930  81.5632510  69.0114420  88.5992690  81.1834240
  70.2883360  89.3710740  81.4398200  66.1803900  88.1239900  79.1183700
  65.3975690  88.5985400  79.3980460  65.8866830  87.2194730  79.0096880
  70.7324970  88.8263000  77.1632790  71.1733060  88.7708100  76.3154390
  70.4632560  89.7421010  77.2342970  72.5963540  88.4578240  75.1741610
  72.5351940  87.5139460  75.0272630  73.3755570  88.5658330  75.7195070
  57.5244310  88.4287380  71.6397420  58.2823670  88.5416260  71.0661450
  57.0621480  89.2656580  71.5940850  64.0658120  90.5426650  74.6299730
  63.2532630  90.1683540  74.2895610  64.5699760  89.7871730  74.9320920
  68.5683100  87.2069100  75.8682800  69.1712470  87.7789310  76.3431320
  67.8276090  87.7708540  75.6456700  71.7117700  87.6090660  71.1423080
  71.9068330  88.5074110  71.4090510  70.9247570  87.3777740  71.6356030
  59.8969460  88.9551430  70.1799390  60.4262220  88.1681230  70.0507340
  60.5297780  89.6342620  70.4134920  62.0907300  88.6926570  73.2344780
  61.4610040  87.9913880  73.4014910  61.5512440  89.4530700  73.0177940
  62.2162860  87.9710550  85.6697270  61.9347130  88.4744150  84.9058090
  62.5982560  87.1732300  85.3039400  68.8178320  87.3864130  86.2477740
  68.7043770  87.7058740  87.1429260  69.6348060  87.7876640  85.9515020
  67.7236470  95.4056600  56.6112480  67.6430520  94.4911210  56.3404190
  67.3100890  95.9023670  55.9052190  65.8554510  97.1835620  58.4921750
  65.0796610  96.7036060  58.7820320  66.5067440  96.5041270  58.3177910
  58.2812290  92.4557320  53.1539900  57.3928990  92.7973290  53.0519780
  58.5653480  92.2557640  52.2620730  56.2445300  95.0562970  59.0379600
  56.8161410  94.2885170  59.0383240  56.2446840  95.3551730  58.1286210
  57.4870170  90.4647330  60.8248530  57.3073010  89.5673080  61.1051290
  57.0850250  91.0119200  61.4995480  66.3268670  92.6663190  58.7260840
  66.7033490  91.7935070  58.6134510  66.2288180  93.0021890  57.8351280
  60.4573680  91.0388820  54.1878280  60.5640430  91.9392550  54.4947040
  59.5466040  90.9906790  53.8972930  70.1092790  90.1613630  55.6589180
  70.9302410  89.6710200  55.7014660  70.1426870  90.7511290  56.4121020
  58.1056840  92.9607830  59.4330870  58.7866950  93.2246200  60.0518270
  57.7904890  92.1208700  59.7668880  62.2981410  94.0075190  58.5203460
  62.8059630  94.5056160  59.1608480  62.8294650  93.2310390  58.3442820
  74.3992340  92.1780380  62.2232810  73.6944510  92.5662090  61.7047920
  74.6650260  92.8730670  62.8253740  60.5817510  88.6473750  62.7866880
  60.5835950  89.1646140  61.9812780  59.7521820  88.1703930  62.7636810
  70.3454270  92.1014010  58.4316720  69.6409840  92.3898900  59.0119830
  70.7066430  92.9114120  58.0716280  60.2632840  90.3583710  60.7937330
  60.6049650  91.2025760  60.4991200  59.3248650  90.5067450  60.9102670
  73.4141190  91.5468800  58.8225930  72.4666100  91.5807780  58.9541360
  73.7391180  92.3607750  59.2075290  63.9460730  87.8465980  57.1181920
  64.2535710  87.2912870  56.4017420  63.0161430  87.9810440  56.9354910
  66.3341490  95.9114810  53.8542040  65.4070770  95.8452190  54.0830510
  66.4866310  96.8494940  53.7397280  66.3210570  92.1831810  50.8509200
  65.3814240  92.3445770  50.9361660  66.6393830  92.9017490  50.3045190
  69.8065340  93.6519650  61.7743100  69.3936520  94.4773360  62.0283090
  69.0741290  93.0664690  61.5819460  61.9398130  96.4379550  56.6361770
  61.5355130  95.7256800  56.1407670  62.0261250  96.0932790  57.5249810
  60.6526750  93.2122760  60.4160810  61.2041340  93.3218100  59.6414060
  61.1670260  93.5860360  61.1316040  72.1220620  87.9664730  49.6791080
  71.8093280  88.0591560  50.5790150  72.8833090  88.5445760  49.6288510
  58.6402760  95.3324530  54.1368420  58.5200360  96.0586620  53.5249690
  58.3303650  94.5627440  53.6596330  73.3321910  92.7036230  65.6565220
  72.7166180  93.2115900  65.1280680  73.0118330  91.8034560  65.5991160
  61.1066420  88.6759600  57.5192090  60.6634570  89.4569140  57.1876610
  61.6651410  88.9989490  58.2263030  65.3936230  91.5428120  63.1227410
  64.9315600  91.7511140  63.9347350  64.9914340  90.7287470  62.8198080
  70.3940740  92.7637070  64.2524070  69.5434330  92.4642820  64.5733140
  70.2342530  93.0079080  63.3407890  67.4890450  94.2638820  66.3522860
  67.8143860  93.4302570  66.0125090  68.2770780  94.7867340  66.5001190
  64.2225240  88.2970300  52.3997920  63.5979420  88.2930170  53.1251230
  64.1355360  87.4301260  52.0033890  63.1442320  89.2206930  59.3781690
  63.4414650  90.1269760  59.2973710  63.6927880  88.7325710  58.7641260
  60.8980640  93.7993170  55.2473340  60.6721560  93.5830340  56.1519960
  60.1173170  94.2321630  54.9019310  68.1278400  93.8056540  53.8463990
  67.5287290  94.5292340  53.6627610  68.6758010  93.7433320  53.0640440
  63.3379850  94.6978750  65.9133610  63.2423450  93.7573480  65.7634010
  64.1811830  94.9193820  65.5181680  66.7343270  92.4420080  55.8767270
  67.1272840  92.7592280  55.0635960  67.0960120  91.5631960  55.9911790
  58.4690390  91.1092420  64.0667390  58.0753780  91.9567630  64.2740170
  57.7808790  90.4718790  64.2576030  65.0435440  91.1927390  67.1364130
  64.3533760  90.9999590  67.7710220  65.7867740  91.4762030  67.6688430
  55.7707440  89.0320880  58.0997470  55.4820490  89.6023740  58.8122450
  56.5153200  88.5525330  58.4628700  55.9577670  92.9741000  49.3100190
  55.8752340  93.9171760  49.4515180  55.6060730  92.8315910  48.4312540
  67.3198410  95.0325830  59.9718050  66.5879530  95.5412640  60.3208150
  66.9222750  94.2155810  59.6706830  63.7575800  91.7080030  58.3770540
  63.7611860  91.2669980  57.5275080  64.6526920  92.0297360  58.4842360
  59.6078180  91.5906520  57.3364750  59.2678230  92.0681750  58.0931800
  58.8455500  91.1371640  56.9765850  63.8195950  92.7092110  51.3677300
  63.9408770  92.6678590  52.3163120  63.4344460  93.5716260  51.2124030
  67.7824320  90.4859510  59.3840990  67.7997060  90.9368160  60.2282840
  67.5339900  89.5865150  59.5974430  62.8317450  95.0193250  50.7660600
  62.2634350  94.5711500  50.1396510  63.5406450  95.3786030  50.2325750
  71.2095070  87.8991690  65.2227370  71.5340840  87.1681350  65.7485350
  71.2451580  87.5805330  64.3208360  64.0583770  95.7681810  60.1235950
  64.4253900  95.2940380  60.8697290  63.8688830  96.6423380  60.4644290
  56.9224260  90.5125500  56.2529420  56.6371180  90.1481170  57.0908040
  56.8603120  89.7805960  55.6392560  61.8483140  94.8090450  62.4420160
  61.5440210  95.6882430  62.6670520  62.8029600  94.8690240  62.4777600
  66.5962850  89.4054760  52.9742790  65.7827460  88.9067930  52.8988100
  66.4024800  90.2453010  52.5579140  69.3111240  93.7774410  51.2704950
  70.1990860  94.0891640  51.0956290  69.2816330  92.9046660  50.8785530
  57.9046870  95.6493190  63.5891520  57.5461810  96.3147040  64.1764860
  57.6101430  94.8176740  63.9604140  61.1059990  96.1077430  66.4731070
  60.8060130  96.2534610  65.5758890  61.8771230  95.5482720  66.3804460
  71.5825510  95.0886250  50.7384810  71.4989230  95.5200470  49.8881250
  72.3019700  95.5484600  51.1711630  56.4154920  95.6484450  50.2126120
  57.2849770  95.9309250  50.4962040  55.9245240  96.4620320  50.0974930
  59.4801510  87.3795310  54.8056920  59.3516140  87.3713210  55.7541840
  58.6563530  87.7178400  54.4547930  56.4795440  89.1386430  64.2663620
  55.7653960  89.3383350  64.8716230  56.8990480  88.3626000  64.6378420
  67.9734220  91.6308740  62.0165070  68.3415040  90.8103950  62.3444640
  67.1132420  91.6910630  62.4320720  71.3396250  90.5865680  52.8252630
  70.7109410  90.6911350  52.1110860  70.8448170  90.8062460  53.6146510
  63.3080280  92.8651630  54.2410510  62.5996430  93.3337970  54.6824120
  63.5924760  92.2073640  54.8755700  64.9336210  94.2848330  62.2403040
  65.4321460  94.7594150  62.9054890  65.0759160  93.3611850  62.4473070
  67.3395710  89.5902290  55.6806300  67.2163490  89.6088420  54.7315810
  68.2880270  89.6381230  55.8004700  61.5115300  91.1736710  51.6161220
  62.3605830  91.6106860  51.5501410  61.1446570  91.4856970  52.4433280
  72.1403070  90.5016290  63.0831430  71.6376670  91.2421690  63.4225240
  72.9559730  90.8900290  62.7668220  70.4325080  95.7449470  56.5292790
  69.4915220  95.7599700  56.7040480  70.7469150  94.9585430  56.9753090
  59.1053480  94.8594140  50.7729640  59.1857070  93.9121650  50.8847040
  59.9973230  95.1901020  50.8790300  56.6324280  96.6809060  66.0085810
  57.1363300  96.1016340  66.5802040  55.8931700  96.9649290  66.5462180
  58.6647360  94.8238650  66.9035880  58.7052700  94.5252520  67.8121110
  59.5192860  95.2246260  66.7443400  60.6053170  93.4030750  64.8710370
  60.0749630  92.9121700  64.2433710  61.2741240  93.8314950  64.3368300
  64.9553390  96.4471810  49.3116490  65.4759050  95.7320830  48.9457640
  65.6021790  97.0857680  49.6117000  69.9753400  95.2096370  66.6390710
  70.5574170  94.4548690  66.5511190  70.1515170  95.7403810  65.8622190
  61.0925470  90.3693120  64.9507660  60.9982340  89.7513870  64.2258530
  60.5122860  91.0959410  64.7237570  63.8586910  88.9266360  61.9835050
  63.4104210  88.9490620  61.1380600  63.2252110  88.5285380  62.5805350
  66.6010360  95.5536870  63.9885330  66.7206570  94.9578010  64.7280170
  67.4604360  95.5906560  63.5686630  68.9398260  96.1074060  62.5647840
  68.4133480  96.6316680  61.9612980  69.2829600  96.7401450  63.1957570
  61.3384650  93.4967430  49.0097550  61.1373710  92.6334790  49.3710890
  61.1676700  93.4100790  48.0719150  63.3679130  92.0958220  65.2461150
  63.9578820  91.7874070  65.9338970  62.5499370  91.6237970  65.4021050
  68.1872560  91.7124030  65.4794170  67.4988080  91.0505570  65.4144160
  68.9078580  91.2662300  65.9242630  68.8172960  88.3075660  51.5384430
  69.0975250  87.4643560  51.8943850  68.0438690  88.5398770  52.0523180
  60.1367450  90.5968050  48.9975430  60.4393350  90.6035480  48.0894580
  60.8762040  90.2465910  49.4943090  63.3552380  89.5402670  49.9831630
  63.0074380  88.8626660  49.4034080  63.5565150  89.0792180  50.7975020
  56.6958020  96.0690320  56.3796000  56.0406860  95.8001960  55.7355700
  57.5335970  95.9594800  55.9297980  69.6448460  90.8631610  50.6014490
  70.0633340  90.6762590  49.7611150  69.3384520  90.0110660  50.9117420
  73.1438190  95.7755750  54.2990290  72.7681790  95.0083680  53.8671580
  72.4141310  96.1578450  54.7865220  57.7333950  96.4542890  60.9199340
  58.1006990  96.3670290  61.7995360  57.1644770  95.6909440  60.8206200
  72.5337810  94.9227270  63.9329810  72.3023900  94.6940020  63.0327760
  72.7942360  95.8426820  63.8874700  57.2849950  93.3651980  64.8257760
  56.3906000  93.3318740  65.1651470  57.8247500  93.5638770  65.5909010
  70.9725880  90.1483700  66.7109510  71.8496060  90.1567100  67.0943510
  70.9846720  89.4114540  66.1001860  55.9096100  93.2789250  52.3221330
  55.0060180  93.5419450  52.1472990  56.3936720  93.5500420  51.5421290
  72.4189150  94.0013240  57.5997530  72.9426630  93.5075890  56.9687700
  73.0048570  94.1363600  58.3445100  72.5978870  94.0853110  61.1217080
  71.6481580  94.0516650  61.2362070  72.7791880  94.9953220  60.8866850
  58.4523310  92.3354790  50.2315710  59.1615010  91.9138010  49.7462990
  57.7363250  92.4030020  49.5999060  58.0997470  88.3894120  49.2718360
  58.8225600  88.9303060  49.5899580  58.3721990  88.1157540  48.3959900
  71.9089120  93.2586590  53.5389940  72.4048240  93.0257460  54.3238820
  71.7105190  92.4198430  53.1227580  57.7889660  87.6400310  59.1740980
  58.4365850  87.0897690  58.7336140  58.2091500  87.8943460  59.9956790
  73.3376280  91.8947540  56.0727620  73.2275560  91.7403580  57.0109890
  74.0983870  91.3668480  55.8303030  71.6842000  87.8341670  62.5310620
  72.3214220  88.4475810  62.8969810  71.8316890  87.8702330  61.5859850
  74.2266550  89.7255460  49.3133760  75.1515860  89.5936640  49.1052050
  74.2042340  89.8048280  50.2670210  74.3005040  90.4966120  51.9390470
  73.5056540  90.4311240  52.4683380  74.5048320  91.4316760  51.9275820
  57.5421660  87.7955980  61.9166300  57.1936480  88.2519800  62.6824480
  57.2109360  86.9013110  61.9988730  65.0546480  88.9867860  65.4385720
  64.9935370  89.5789690  66.1881130  65.9946860  88.8793820  65.2935980
  67.6921040  88.6437920  65.0778010  68.3061450  88.9617210  64.4159090
  68.2370600  88.1586510  65.6973870  58.2142300  87.3232180  65.1917070
  58.7625290  87.1420230  64.4283180  58.2797610  86.5326290  65.7273380
  68.4329080  87.2070060  61.4047300  67.5588920  87.5405170  61.2020230
  68.3239830  86.7343240  62.2299170  69.3401060  89.4140930  62.7889020
  69.0114420  88.5992690  62.4090750  70.2883360  89.3710740  62.6654710
  66.1803900  88.1239900  60.3440210  65.3975690  88.5985400  60.6236970
  65.8866830  87.2194730  60.2353390  70.7324970  88.8263000  58.3889300
  71.1733060  88.7708100  57.5410900  70.4632560  89.7421010  58.4599480
  72.5963540  88.4578240  56.3998120  72.5351940  87.5139460  56.2529140
  73.3755570  88.5658330  56.9451580  57.5244310  88.4287380  52.8653930
  58.2823670  88.5416260  52.2917960  57.0621480  89.2656580  52.8197360
  64.0658120  90.5426650  55.8556240  63.2532630  90.1683540  55.5152120
  64.5699760  89.7871730  56.1577430  68.5683100  87.2069100  57.0939310
  69.1712470  87.7789310  57.5687830  67.8276090  87.7708540  56.8713210
  71.7117700  87.6090660  52.3679590  71.9068330  88.5074110  52.6347020
  70.9247570  87.3777740  52.8612540  59.8969460  88.9551430  51.4055900
  60.4262220  88.1681230  51.2763850  60.5297780  89.6342620  51.6391430
  62.0907300  88.6926570  54.4601290  61.4610040  87.9913880  54.6271420
  61.5512440  89.4530700  54.2434450  62.2162860  87.9710550  66.8953780
  61.9347130  88.4744150  66.1314600  62.5982560  87.1732300  66.5295910
  68.8178320  87.3864130  67.4734250  68.7043770  87.7058740  68.3685770
  69.6348060  87.7876640  67.1771530  67.7236470  95.4056600  37.8368990
  67.6430520  94.4911210  37.5660700  67.3100890  95.9023670  37.1308700
  65.8554510  97.1835620  39.7178260  65.0796610  96.7036060  40.0076830
  66.5067440  96.5041270  39.5434420  58.2812290  92.4557320  34.3796410
  57.3928990  92.7973290  34.2776290  58.5653480  92.2557640  33.4877240
  56.2445300  95.0562970  40.2636110  56.8161410  94.2885170  40.2639750
  56.2446840  95.3551730  39.3542720  57.4870170  90.4647330  42.0505040
  57.3073010  89.5673080  42.3307800  57.0850250  91.0119200  42.7251990
  66.3268670  92.6663190  39.9517350  66.7033490  91.7935070  39.8391020
  66.2288180  93.0021890  39.0607790  60.4573680  91.0388820  35.4134790
  60.5640430  91.9392550  35.7203550  59.5466040  90.9906790  35.1229440
  70.1092790  90.1613630  36.8845690  70.9302410  89.6710200  36.9271170
  70.1426870  90.7511290  37.6377530  58.1056840  92.9607830  40.6587380
  58.7866950  93.2246200  41.2774780  57.7904890  92.1208700  40.9925390
  62.2981410  94.0075190  39.7459970  62.8059630  94.5056160  40.3864990
  62.8294650  93.2310390  39.5699330  74.3992340  92.1780380  43.4489320
  73.6944510  92.5662090  42.9304430  74.6650260  92.8730670  44.0510250
  60.5817510  88.6473750  44.0123390  60.5835950  89.1646140  43.2069290
  59.7521820  88.1703930  43.9893320  70.3454270  92.1014010  39.6573230
  69.6409840  92.3898900  40.2376340  70.7066430  92.9114120  39.2972790
  60.2632840  90.3583710  42.0193840  60.6049650  91.2025760  41.7247710
  59.3248650  90.5067450  42.1359180  73.4141190  91.5468800  40.0482440
  72.4666100  91.5807780  40.1797870  73.7391180  92.3607750  40.4331800
  63.9460730  87.8465980  38.3438430  64.2535710  87.2912870  37.6273930
  63.0161430  87.9810440  38.1611420  66.3341490  95.9114810  35.0798550
  65.4070770  95.8452190  35.3087020  66.4866310  96.8494940  34.9653790
  66.3210570  92.1831810  32.0765710  65.3814240  92.3445770  32.1618170
  66.6393830  92.9017490  31.5301700  69.8065340  93.6519650  42.9999610
  69.3936520  94.4773360  43.2539600  69.0741290  93.0664690  42.8075970
  61.9398130  96.4379550  37.8618280  61.5355130  95.7256800  37.3664180
  62.0261250  96.0932790  38.7506320  60.6526750  93.2122760  41.6417320
  61.2041340  93.3218100  40.8670570  61.1670260  93.5860360  42.3572550
  72.1220620  87.9664730  30.9047590  71.8093280  88.0591560  31.8046660
  72.8833090  88.5445760  30.8545020  58.6402760  95.3324530  35.3624930
  58.5200360  96.0586620  34.7506200  58.3303650  94.5627440  34.8852840
  73.3321910  92.7036230  46.8821730  72.7166180  93.2115900  46.3537190
  73.0118330  91.8034560  46.8247670  61.1066420  88.6759600  38.7448600
  60.6634570  89.4569140  38.4133120  61.6651410  88.9989490  39.4519540
  65.3936230  91.5428120  44.3483920  64.9315600  91.7511140  45.1603860
  64.9914340  90.7287470  44.0454590  70.3940740  92.7637070  45.4780580
  69.5434330  92.4642820  45.7989650  70.2342530  93.0079080  44.5664400
  67.4890450  94.2638820  47.5779370  67.8143860  93.4302570  47.2381600
  68.2770780  94.7867340  47.7257700  64.2225240  88.2970300  33.6254430
  63.5979420  88.2930170  34.3507740  64.1355360  87.4301260  33.2290400
  63.1442320  89.2206930  40.6038200  63.4414650  90.1269760  40.5230220
  63.6927880  88.7325710  39.9897770  60.8980640  93.7993170  36.4729850
  60.6721560  93.5830340  37.3776470  60.1173170  94.2321630  36.1275820
  68.1278400  93.8056540  35.0720500  67.5287290  94.5292340  34.8884120
  68.6758010  93.7433320  34.2896950  63.3379850  94.6978750  47.1390120
  63.2423450  93.7573480  46.9890520  64.1811830  94.9193820  46.7438190
  66.7343270  92.4420080  37.1023780  67.1272840  92.7592280  36.2892470
  67.0960120  91.5631960  37.2168300  58.4690390  91.1092420  45.2923900
  58.0753780  91.9567630  45.4996680  57.7808790  90.4718790  45.4832540
  65.0435440  91.1927390  48.3620640  64.3533760  90.9999590  48.9966730
  65.7867740  91.4762030  48.8944940  55.7707440  89.0320880  39.3253980
  55.4820490  89.6023740  40.0378960  56.5153200  88.5525330  39.6885210
  55.9577670  92.9741000  30.5356700  55.8752340  93.9171760  30.6771690
  55.6060730  92.8315910  29.6569050  67.3198410  95.0325830  41.1974560
  66.5879530  95.5412640  41.5464660  66.9222750  94.2155810  40.8963340
  63.7575800  91.7080030  39.6027050  63.7611860  91.2669980  38.7531590
  64.6526920  92.0297360  39.7098870  59.6078180  91.5906520  38.5621260
  59.2678230  92.0681750  39.3188310  58.8455500  91.1371640  38.2022360
  63.8195950  92.7092110  32.5933810  63.9408770  92.6678590  33.5419630
  63.4344460  93.5716260  32.4380540  67.7824320  90.4859510  40.6097500
  67.7997060  90.9368160  41.4539350  67.5339900  89.5865150  40.8230940
  62.8317450  95.0193250  31.9917110  62.2634350  94.5711500  31.3653020
  63.5406450  95.3786030  31.4582260  71.2095070  87.8991690  46.4483880
  71.5340840  87.1681350  46.9741860  71.2451580  87.5805330  45.5464870
  64.0583770  95.7681810  41.3492460  64.4253900  95.2940380  42.0953800
  63.8688830  96.6423380  41.6900800  56.9224260  90.5125500  37.4785930
  56.6371180  90.1481170  38.3164550  56.8603120  89.7805960  36.8649070
  61.8483140  94.8090450  43.6676670  61.5440210  95.6882430  43.8927030
  62.8029600  94.8690240  43.7034110  66.5962850  89.4054760  34.1999300
  65.7827460  88.9067930  34.1244610  66.4024800  90.2453010  33.7835650
  69.3111240  93.7774410  32.4961460  70.1990860  94.0891640  32.3212800
  69.2816330  92.9046660  32.1042040  57.9046870  95.6493190  44.8148030
  57.5461810  96.3147040  45.4021370  57.6101430  94.8176740  45.1860650
  61.1059990  96.1077430  47.6987580  60.8060130  96.2534610  46.8015400
  61.8771230  95.5482720  47.6060970  71.5825510  95.0886250  31.9641320
  71.4989230  95.5200470  31.1137760  72.3019700  95.5484600  32.3968140
  56.4154920  95.6484450  31.4382630  57.2849770  95.9309250  31.7218550
  55.9245240  96.4620320  31.3231440  59.4801510  87.3795310  36.0313430
  59.3516140  87.3713210  36.9798350  58.6563530  87.7178400  35.6804440
  56.4795440  89.1386430  45.4920130  55.7653960  89.3383350  46.0972740
  56.8990480  88.3626000  45.8634930  67.9734220  91.6308740  43.2421580
  68.3415040  90.8103950  43.5701150  67.1132420  91.6910630  43.6577230
  71.3396250  90.5865680  34.0509140  70.7109410  90.6911350  33.3367370
  70.8448170  90.8062460  34.8403020  63.3080280  92.8651630  35.4667020
  62.5996430  93.3337970  35.9080630  63.5924760  92.2073640  36.1012210
  64.9336210  94.2848330  43.4659550  65.4321460  94.7594150  44.1311400
  65.0759160  93.3611850  43.6729580  67.3395710  89.5902290  36.9062810
  67.2163490  89.6088420  35.9572320  68.2880270  89.6381230  37.0261210
  61.5115300  91.1736710  32.8417730  62.3605830  91.6106860  32.7757920
  61.1446570  91.4856970  33.6689790  72.1403070  90.5016290  44.3087940
  71.6376670  91.2421690  44.6481750  72.9559730  90.8900290  43.9924730
  70.4325080  95.7449470  37.7549300  69.4915220  95.7599700  37.9296990
  70.7469150  94.9585430  38.2009600  59.1053480  94.8594140  31.9986150
  59.1857070  93.9121650  32.1103550  59.9973230  95.1901020  32.1046810
  56.6324280  96.6809060  47.2342320  57.1363300  96.1016340  47.8058550
  55.8931700  96.9649290  47.7718690  58.6647360  94.8238650  48.1292390
  58.7052700  94.5252520  49.0377620  59.5192860  95.2246260  47.9699910
  60.6053170  93.4030750  46.0966880  60.0749630  92.9121700  45.4690220
  61.2741240  93.8314950  45.5624810  64.9553390  96.4471810  30.5373000
  65.4759050  95.7320830  30.1714150  65.6021790  97.0857680  30.8373510
  69.9753400  95.2096370  47.8647220  70.5574170  94.4548690  47.7767700
  70.1515170  95.7403810  47.0878700  61.0925470  90.3693120  46.1764170
  60.9982340  89.7513870  45.4515040  60.5122860  91.0959410  45.9494080
  63.8586910  88.9266360  43.2091560  63.4104210  88.9490620  42.3637110
  63.2252110  88.5285380  43.8061860  66.6010360  95.5536870  45.2141840
  66.7206570  94.9578010  45.9536680  67.4604360  95.5906560  44.7943140
  68.9398260  96.1074060  43.7904350  68.4133480  96.6316680  43.1869490
  69.2829600  96.7401450  44.4214080  61.3384650  93.4967430  30.2354060
  61.1373710  92.6334790  30.5967400  61.1676700  93.4100790  29.2975660
  63.3679130  92.0958220  46.4717660  63.9578820  91.7874070  47.1595480
  62.5499370  91.6237970  46.6277560  68.1872560  91.7124030  46.7050680
  67.4988080  91.0505570  46.6400670  68.9078580  91.2662300  47.1499140
  68.8172960  88.3075660  32.7640940  69.0975250  87.4643560  33.1200360
  68.0438690  88.5398770  33.2779690  60.1367450  90.5968050  30.2231940
  60.4393350  90.6035480  29.3151090  60.8762040  90.2465910  30.7199600
  63.3552380  89.5402670  31.2088140  63.0074380  88.8626660  30.6290590
  63.5565150  89.0792180  32.0231530  56.6958020  96.0690320  37.6052510
  56.0406860  95.8001960  36.9612210  57.5335970  95.9594800  37.1554490
  69.6448460  90.8631610  31.8271000  70.0633340  90.6762590  30.9867660
  69.3384520  90.0110660  32.1373930  73.1438190  95.7755750  35.5246800
  72.7681790  95.0083680  35.0928090  72.4141310  96.1578450  36.0121730
  57.7333950  96.4542890  42.1455850  58.1006990  96.3670290  43.0251870
  57.1644770  95.6909440  42.0462710  72.5337810  94.9227270  45.1586320
  72.3023900  94.6940020  44.2584270  72.7942360  95.8426820  45.1131210
  57.2849950  93.3651980  46.0514270  56.3906000  93.3318740  46.3907980
  57.8247500  93.5638770  46.8165520  70.9725880  90.1483700  47.9366020
  71.8496060  90.1567100  48.3200020  70.9846720  89.4114540  47.3258370
  55.9096100  93.2789250  33.5477840  55.0060180  93.5419450  33.3729500
  56.3936720  93.5500420  32.7677800  72.4189150  94.0013240  38.8254040
  72.9426630  93.5075890  38.1944210  73.0048570  94.1363600  39.5701610
  72.5978870  94.0853110  42.3473590  71.6481580  94.0516650  42.4618580
  72.7791880  94.9953220  42.1123360  58.4523310  92.3354790  31.4572220
  59.1615010  91.9138010  30.9719500  57.7363250  92.4030020  30.8255570
  58.0997470  88.3894120  30.4974870  58.8225600  88.9303060  30.8156090
  58.3721990  88.1157540  29.6216410  71.9089120  93.2586590  34.7646450
  72.4048240  93.0257460  35.5495330  71.7105190  92.4198430  34.3484090
  57.7889660  87.6400310  40.3997490  58.4365850  87.0897690  39.9592650
  58.2091500  87.8943460  41.2213300  73.3376280  91.8947540  37.2984130
  73.2275560  91.7403580  38.2366400  74.0983870  91.3668480  37.0559540
  71.6842000  87.8341670  43.7567130  72.3214220  88.4475810  44.1226320
  71.8316890  87.8702330  42.8116360  74.2266550  89.7255460  30.5390270
  75.1515860  89.5936640  30.3308560  74.2042340  89.8048280  31.4926720
  74.3005040  90.4966120  33.1646980  73.5056540  90.4311240  33.6939890
  74.5048320  91.4316760  33.1532330  57.5421660  87.7955980  43.1422810
  57.1936480  88.2519800  43.9080990  57.2109360  86.9013110  43.2245240
  65.0546480  88.9867860  46.6642230  64.9935370  89.5789690  47.4137640
  65.9946860  88.8793820  46.5192490  67.6921040  88.6437920  46.3034520
  68.3061450  88.9617210  45.6415600  68.2370600  88.1586510  46.9230380
  58.2142300  87.3232180  46.4173580  58.7625290  87.1420230  45.6539690
  58.2797610  86.5326290  46.9529890  68.4329080  87.2070060  42.6303810
  67.5588920  87.5405170  42.4276740  68.3239830  86.7343240  43.4555680
  69.3401060  89.4140930  44.0145530  69.0114420  88.5992690  43.6347260
  70.2883360  89.3710740  43.8911220  66.1803900  88.1239900  41.5696720
  65.3975690  88.5985400  41.8493480  65.8866830  87.2194730  41.4609900
  70.7324970  88.8263000  39.6145810  71.1733060  88.7708100  38.7667410
  70.4632560  89.7421010  39.6855990  72.5963540  88.4578240  37.6254630
  72.5351940  87.5139460  37.4785650  73.3755570  88.5658330  38.1708090
  57.5244310  88.4287380  34.0910440  58.2823670  88.5416260  33.5174470
  57.0621480  89.2656580  34.0453870  64.0658120  90.5426650  37.0812750
  63.2532630  90.1683540  36.7408630  64.5699760  89.7871730  37.3833940
  68.5683100  87.2069100  38.3195820  69.1712470  87.7789310  38.7944340
  67.8276090  87.7708540  38.0969720  71.7117700  87.6090660  33.5936100
  71.9068330  88.5074110  33.8603530  70.9247570  87.3777740  34.0869050
  59.8969460  88.9551430  32.6312410  60.4262220  88.1681230  32.5020360
  60.5297780  89.6342620  32.8647940  62.0907300  88.6926570  35.6857800
  61.4610040  87.9913880  35.8527930  61.5512440  89.4530700  35.4690960
  62.2162860  87.9710550  48.1210290  61.9347130  88.4744150  47.3571110
  62.5982560  87.1732300  47.7552420  68.8178320  87.3864130  48.6990760
  68.7043770  87.7058740  49.5942280  69.6348060  87.7876640  48.4028040
  67.7236470  95.4056600  19.0625500  67.6430520  94.4911210  18.7917210
  67.3100890  95.9023670  18.3565210  65.8554510  97.1835620  20.9434770
  65.0796610  96.7036060  21.2333340  66.5067440  96.5041270  20.7690930
  58.2812290  92.4557320  15.6052920  57.3928990  92.7973290  15.5032800
  58.5653480  92.2557640  14.7133750  56.2445300  95.0562970  21.4892620
  56.8161410  94.2885170  21.4896260  56.2446840  95.3551730  20.5799230
  57.4870170  90.4647330  23.2761550  57.3073010  89.5673080  23.5564310
  57.0850250  91.0119200  23.9508500  66.3268670  92.6663190  21.1773860
  66.7033490  91.7935070  21.0647530  66.2288180  93.0021890  20.2864300
  60.4573680  91.0388820  16.6391300  60.5640430  91.9392550  16.9460060
  59.5466040  90.9906790  16.3485950  70.1092790  90.1613630  18.1102200
  70.9302410  89.6710200  18.1527680  70.1426870  90.7511290  18.8634040
  58.1056840  92.9607830  21.8843890  58.7866950  93.2246200  22.5031290
  57.7904890  92.1208700  22.2181900  62.2981410  94.0075190  20.9716480
  62.8059630  94.5056160  21.6121500  62.8294650  93.2310390  20.7955840
  74.3992340  92.1780380  24.6745830  73.6944510  92.5662090  24.1560940
  74.6650260  92.8730670  25.2766760  60.5817510  88.6473750  25.2379900
  60.5835950  89.1646140  24.4325800  59.7521820  88.1703930  25.2149830
  70.3454270  92.1014010  20.8829740  69.6409840  92.3898900  21.4632850
  70.7066430  92.9114120  20.5229300  60.2632840  90.3583710  23.2450350
  60.6049650  91.2025760  22.9504220  59.3248650  90.5067450  23.3615690
  73.4141190  91.5468800  21.2738950  72.4666100  91.5807780  21.4054380
  73.7391180  92.3607750  21.6588310  63.9460730  87.8465980  19.5694940
  64.2535710  87.2912870  18.8530440  63.0161430  87.9810440  19.3867930
  66.3341490  95.9114810  16.3055060  65.4070770  95.8452190  16.5343530
  66.4866310  96.8494940  16.1910300  66.3210570  92.1831810  13.3022220
  65.3814240  92.3445770  13.3874680  66.6393830  92.9017490  12.7558210
  69.8065340  93.6519650  24.2256120  69.3936520  94.4773360  24.4796110
  69.0741290  93.0664690  24.0332480  61.9398130  96.4379550  19.0874790
  61.5355130  95.7256800  18.5920690  62.0261250  96.0932790  19.9762830
  60.6526750  93.2122760  22.8673830  61.2041340  93.3218100  22.0927080
  61.1670260  93.5860360  23.5829060  72.1220620  87.9664730  12.1304100
  71.8093280  88.0591560  13.0303170  72.8833090  88.5445760  12.0801530
  58.6402760  95.3324530  16.5881440  58.5200360  96.0586620  15.9762710
  58.3303650  94.5627440  16.1109350  73.3321910  92.7036230  28.1078240
  72.7166180  93.2115900  27.5793700  73.0118330  91.8034560  28.0504180
  61.1066420  88.6759600  19.9705110  60.6634570  89.4569140  19.6389630
  61.6651410  88.9989490  20.6776050  65.3936230  91.5428120  25.5740430
  64.9315600  91.7511140  26.3860370  64.9914340  90.7287470  25.2711100
  70.3940740  92.7637070  26.7037090  69.5434330  92.4642820  27.0246160
  70.2342530  93.0079080  25.7920910  67.4890450  94.2638820  28.8035880
  67.8143860  93.4302570  28.4638110  68.2770780  94.7867340  28.9514210
  64.2225240  88.2970300  14.8510940  63.5979420  88.2930170  15.5764250
  64.1355360  87.4301260  14.4546910  63.1442320  89.2206930  21.8294710
  63.4414650  90.1269760  21.7486730  63.6927880  88.7325710  21.2154280
  60.8980640  93.7993170  17.6986360  60.6721560  93.5830340  18.6032980
  60.1173170  94.2321630  17.3532330  68.1278400  93.8056540  16.2977010
  67.5287290  94.5292340  16.1140630  68.6758010  93.7433320  15.5153460
  63.3379850  94.6978750  28.3646630  63.2423450  93.7573480  28.2147030
  64.1811830  94.9193820  27.9694700  66.7343270  92.4420080  18.3280290
  67.1272840  92.7592280  17.5148980  67.0960120  91.5631960  18.4424810
  58.4690390  91.1092420  26.5180410  58.0753780  91.9567630  26.7253190
  57.7808790  90.4718790  26.7089050  65.0435440  91.1927390  29.5877150
  64.3533760  90.9999590  30.2223240  65.7867740  91.4762030  30.1201450
  55.7707440  89.0320880  20.5510490  55.4820490  89.6023740  21.2635470
  56.5153200  88.5525330  20.9141720  55.9577670  92.9741000  11.7613210
  55.8752340  93.9171760  11.9028200  55.6060730  92.8315910  10.8825560
  67.3198410  95.0325830  22.4231070  66.5879530  95.5412640  22.7721170
  66.9222750  94.2155810  22.1219850  63.7575800  91.7080030  20.8283560
  63.7611860  91.2669980  19.9788100  64.6526920  92.0297360  20.9355380
  59.6078180  91.5906520  19.7877770  59.2678230  92.0681750  20.5444820
  58.8455500  91.1371640  19.4278870  63.8195950  92.7092110  13.8190320
  63.9408770  92.6678590  14.7676140  63.4344460  93.5716260  13.6637050
  67.7824320  90.4859510  21.8354010  67.7997060  90.9368160  22.6795860
  67.5339900  89.5865150  22.0487450  62.8317450  95.0193250  13.2173620
  62.2634350  94.5711500  12.5909530  63.5406450  95.3786030  12.6838770
  71.2095070  87.8991690  27.6740390  71.5340840  87.1681350  28.1998370
  71.2451580  87.5805330  26.7721380  64.0583770  95.7681810  22.5748970
  64.4253900  95.2940380  23.3210310  63.8688830  96.6423380  22.9157310
  56.9224260  90.5125500  18.7042440  56.6371180  90.1481170  19.5421060
  56.8603120  89.7805960  18.0905580  61.8483140  94.8090450  24.8933180
  61.5440210  95.6882430  25.1183540  62.8029600  94.8690240  24.9290620
  66.5962850  89.4054760  15.4255810  65.7827460  88.9067930  15.3501120
  66.4024800  90.2453010  15.0092160  69.3111240  93.7774410  13.7217970
  70.1990860  94.0891640  13.5469310  69.2816330  92.9046660  13.3298550
  57.9046870  95.6493190  26.0404540  57.5461810  96.3147040  26.6277880
  57.6101430  94.8176740  26.4117160  61.1059990  96.1077430  28.9244090
  60.8060130  96.2534610  28.0271910  61.8771230  95.5482720  28.8317480
  71.5825510  95.0886250  13.1897830  71.4989230  95.5200470  12.3394270
  72.3019700  95.5484600  13.6224650  56.4154920  95.6484450  12.6639140
  57.2849770  95.9309250  12.9475060  55.9245240  96.4620320  12.5487950
  59.4801510  87.3795310  17.2569940  59.3516140  87.3713210  18.2054860
  58.6563530  87.7178400  16.9060950  56.4795440  89.1386430  26.7176640
  55.7653960  89.3383350  27.3229250  56.8990480  88.3626000  27.0891440
  67.9734220  91.6308740  24.4678090  68.3415040  90.8103950  24.7957660
  67.1132420  91.6910630  24.8833740  71.3396250  90.5865680  15.2765650
  70.7109410  90.6911350  14.5623880  70.8448170  90.8062460  16.0659530
  63.3080280  92.8651630  16.6923530  62.5996430  93.3337970  17.1337140
  63.5924760  92.2073640  17.3268720  64.9336210  94.2848330  24.6916060
  65.4321460  94.7594150  25.3567910  65.0759160  93.3611850  24.8986090
  67.3395710  89.5902290  18.1319320  67.2163490  89.6088420  17.1828830
  68.2880270  89.6381230  18.2517720  61.5115300  91.1736710  14.0674240
  62.3605830  91.6106860  14.0014430  61.1446570  91.4856970  14.8946300
  72.1403070  90.5016290  25.5344450  71.6376670  91.2421690  25.8738260
  72.9559730  90.8900290  25.2181240  70.4325080  95.7449470  18.9805810
  69.4915220  95.7599700  19.1553500  70.7469150  94.9585430  19.4266110
  59.1053480  94.8594140  13.2242660  59.1857070  93.9121650  13.3360060
  59.9973230  95.1901020  13.3303320  56.6324280  96.6809060  28.4598830
  57.1363300  96.1016340  29.0315060  55.8931700  96.9649290  28.9975200
  58.6647360  94.8238650  29.3548900  58.7052700  94.5252520  30.2634130
  59.5192860  95.2246260  29.1956420  60.6053170  93.4030750  27.3223390
  60.0749630  92.9121700  26.6946730  61.2741240  93.8314950  26.7881320
  64.9553390  96.4471810  11.7629510  65.4759050  95.7320830  11.3970660
  65.6021790  97.0857680  12.0630020  69.9753400  95.2096370  29.0903730
  70.5574170  94.4548690  29.0024210  70.1515170  95.7403810  28.3135210
  61.0925470  90.3693120  27.4020680  60.9982340  89.7513870  26.6771550
  60.5122860  91.0959410  27.1750590  63.8586910  88.9266360  24.4348070
  63.4104210  88.9490620  23.5893620  63.2252110  88.5285380  25.0318370
  66.6010360  95.5536870  26.4398350  66.7206570  94.9578010  27.1793190
  67.4604360  95.5906560  26.0199650  68.9398260  96.1074060  25.0160860
  68.4133480  96.6316680  24.4126000  69.2829600  96.7401450  25.6470590
  61.3384650  93.4967430  11.4610570  61.1373710  92.6334790  11.8223910
  61.1676700  93.4100790  10.5232170  63.3679130  92.0958220  27.6974170
  63.9578820  91.7874070  28.3851990  62.5499370  91.6237970  27.8534070
  68.1872560  91.7124030  27.9307190  67.4988080  91.0505570  27.8657180
  68.9078580  91.2662300  28.3755650  68.8172960  88.3075660  13.9897450
  69.0975250  87.4643560  14.3456870  68.0438690  88.5398770  14.5036200
  60.1367450  90.5968050  11.4488450  60.4393350  90.6035480  10.5407600
  60.8762040  90.2465910  11.9456110  63.3552380  89.5402670  12.4344650
  63.0074380  88.8626660  11.8547100  63.5565150  89.0792180  13.2488040
  56.6958020  96.0690320  18.8309020  56.0406860  95.8001960  18.1868720
  57.5335970  95.9594800  18.3811000  69.6448460  90.8631610  13.0527510
  70.0633340  90.6762590  12.2124170  69.3384520  90.0110660  13.3630440
  73.1438190  95.7755750  16.7503310  72.7681790  95.0083680  16.3184600
  72.4141310  96.1578450  17.2378240  57.7333950  96.4542890  23.3712360
  58.1006990  96.3670290  24.2508380  57.1644770  95.6909440  23.2719220
  72.5337810  94.9227270  26.3842830  72.3023900  94.6940020  25.4840780
  72.7942360  95.8426820  26.3387720  57.2849950  93.3651980  27.2770780
  56.3906000  93.3318740  27.6164490  57.8247500  93.5638770  28.0422030
  70.9725880  90.1483700  29.1622530  71.8496060  90.1567100  29.5456530
  70.9846720  89.4114540  28.5514880  55.9096100  93.2789250  14.7734350
  55.0060180  93.5419450  14.5986010  56.3936720  93.5500420  13.9934310
  72.4189150  94.0013240  20.0510550  72.9426630  93.5075890  19.4200720
  73.0048570  94.1363600  20.7958120  72.5978870  94.0853110  23.5730100
  71.6481580  94.0516650  23.6875090  72.7791880  94.9953220  23.3379870
  58.4523310  92.3354790  12.6828730  59.1615010  91.9138010  12.1976010
  57.7363250  92.4030020  12.0512080  58.0997470  88.3894120  11.7231380
  58.8225600  88.9303060  12.0412600  58.3721990  88.1157540  10.8472920
  71.9089120  93.2586590  15.9902960  72.4048240  93.0257460  16.7751840
  71.7105190  92.4198430  15.5740600  57.7889660  87.6400310  21.6254000
  58.4365850  87.0897690  21.1849160  58.2091500  87.8943460  22.4469810
  73.3376280  91.8947540  18.5240640  73.2275560  91.7403580  19.4622910
  74.0983870  91.3668480  18.2816050  71.6842000  87.8341670  24.9823640
  72.3214220  88.4475810  25.3482830  71.8316890  87.8702330  24.0372870
  74.2266550  89.7255460  11.7646780  75.1515860  89.5936640  11.5565070
  74.2042340  89.8048280  12.7183230  74.3005040  90.4966120  14.3903490
  73.5056540  90.4311240  14.9196400  74.5048320  91.4316760  14.3788840
  57.5421660  87.7955980  24.3679320  57.1936480  88.2519800  25.1337500
  57.2109360  86.9013110  24.4501750  65.0546480  88.9867860  27.8898740
  64.9935370  89.5789690  28.6394150  65.9946860  88.8793820  27.7449000
  67.6921040  88.6437920  27.5291030  68.3061450  88.9617210  26.8672110
  68.2370600  88.1586510  28.1486890  58.2142300  87.3232180  27.6430090
  58.7625290  87.1420230  26.8796200  58.2797610  86.5326290  28.1786400
  68.4329080  87.2070060  23.8560320  67.5588920  87.5405170  23.6533250
  68.3239830  86.7343240  24.6812190  69.3401060  89.4140930  25.2402040
  69.0114420  88.5992690  24.8603770  70.2883360  89.3710740  25.1167730
  66.1803900  88.1239900  22.7953230  65.3975690  88.5985400  23.0749990
  65.8866830  87.2194730  22.6866410  70.7324970  88.8263000  20.8402320
  71.1733060  88.7708100  19.9923920  70.4632560  89.7421010  20.9112500
  72.5963540  88.4578240  18.8511140  72.5351940  87.5139460  18.7042160
  73.3755570  88.5658330  19.3964600  57.5244310  88.4287380  15.3166950
  58.2823670  88.5416260  14.7430980  57.0621480  89.2656580  15.2710380
  64.0658120  90.5426650  18.3069260  63.2532630  90.1683540  17.9665140
  64.5699760  89.7871730  18.6090450  68.5683100  87.2069100  19.5452330
  69.1712470  87.7789310  20.0200850  67.8276090  87.7708540  19.3226230
  71.7117700  87.6090660  14.8192610  71.9068330  88.5074110  15.0860040
  70.9247570  87.3777740  15.3125560  59.8969460  88.9551430  13.8568920
  60.4262220  88.1681230  13.7276870  60.5297780  89.6342620  14.0904450
  62.0907300  88.6926570  16.9114310  61.4610040  87.9913880  17.0784440
  61.5512440  89.4530700  16.6947470  62.2162860  87.9710550  29.3466800
  61.9347130  88.4744150  28.5827620  62.5982560  87.1732300  28.9808930
  68.8178320  87.3864130  29.9247270  68.7043770  87.7058740  30.8198790
  69.6348060  87.7876640  29.6284550  65.8554510  97.1835620   2.1691280
  65.0796610  96.7036060   2.4589850  66.5067440  96.5041270   1.9947440
  56.2445300  95.0562970   2.7149130  56.8161410  94.2885170   2.7152770
  56.2446840  95.3551730   1.8055740  57.4870170  90.4647330   4.5018060
  57.3073010  89.5673080   4.7820820  57.0850250  91.0119200   5.1765010
  58.1056840  92.9607830   3.1100400  58.7866950  93.2246200   3.7287800
  57.7904890  92.1208700   3.4438410  62.2981410  94.0075190   2.1972990
  62.8059630  94.5056160   2.8378010  62.8294650  93.2310390   2.0212350
  74.3992340  92.1780380   5.9002340  73.6944510  92.5662090   5.3817450
  74.6650260  92.8730670   6.5023270  60.5817510  88.6473750   6.4636410
  60.5835950  89.1646140   5.6582310  59.7521820  88.1703930   6.4406340
  70.3454270  92.1014010   2.1086250  69.6409840  92.3898900   2.6889360
  70.7066430  92.9114120   1.7485810  60.2632840  90.3583710   4.4706860
  60.6049650  91.2025760   4.1760730  59.3248650  90.5067450   4.5872200
  73.4141190  91.5468800   2.4995460  72.4666100  91.5807780   2.6310890
  73.7391180  92.3607750   2.8844820  69.8065340  93.6519650   5.4512630
  69.3936520  94.4773360   5.7052620  69.0741290  93.0664690   5.2588990
  60.6526750  93.2122760   4.0930340  61.2041340  93.3218100   3.3183590
  61.1670260  93.5860360   4.8085570  73.3321910  92.7036230   9.3334750
  72.7166180  93.2115900   8.8050210  73.0118330  91.8034560   9.2760690
  65.3936230  91.5428120   6.7996940  64.9315600  91.7511140   7.6116880
  64.9914340  90.7287470   6.4967610  70.3940740  92.7637070   7.9293600
  69.5434330  92.4642820   8.2502670  70.2342530  93.0079080   7.0177420
  67.4890450  94.2638820  10.0292390  67.8143860  93.4302570   9.6894620
  68.2770780  94.7867340  10.1770720  63.1442320  89.2206930   3.0551220
  63.4414650  90.1269760   2.9743240  63.6927880  88.7325710   2.4410790
  63.3379850  94.6978750   9.5903140  63.2423450  93.7573480   9.4403540
  64.1811830  94.9193820   9.1951210  58.4690390  91.1092420   7.7436920
  58.0753780  91.9567630   7.9509700  57.7808790  90.4718790   7.9345560
  65.0435440  91.1927390  10.8133660  64.3533760  90.9999590  11.4479750
  65.7867740  91.4762030  11.3457960  55.7707440  89.0320880   1.7767000
  55.4820490  89.6023740   2.4891980  56.5153200  88.5525330   2.1398230
  67.3198410  95.0325830   3.6487580  66.5879530  95.5412640   3.9977680
  66.9222750  94.2155810   3.3476360  67.7824320  90.4859510   3.0610520
  67.7997060  90.9368160   3.9052370  67.5339900  89.5865150   3.2743960
  71.2095070  87.8991690   8.8996900  71.5340840  87.1681350   9.4254880
  71.2451580  87.5805330   7.9977890  64.0583770  95.7681810   3.8005480
  64.4253900  95.2940380   4.5466820  63.8688830  96.6423380   4.1413820
  61.8483140  94.8090450   6.1189690  61.5440210  95.6882430   6.3440050
  62.8029600  94.8690240   6.1547130  57.9046870  95.6493190   7.2661050
  57.5461810  96.3147040   7.8534390  57.6101430  94.8176740   7.6373670
  61.1059990  96.1077430  10.1500600  60.8060130  96.2534610   9.2528420
  61.8771230  95.5482720  10.0573990  56.4795440  89.1386430   7.9433150
  55.7653960  89.3383350   8.5485760  56.8990480  88.3626000   8.3147950
  67.9734220  91.6308740   5.6934600  68.3415040  90.8103950   6.0214170
  67.1132420  91.6910630   6.1090250  64.9336210  94.2848330   5.9172570
  65.4321460  94.7594150   6.5824420  65.0759160  93.3611850   6.1242600
  72.1403070  90.5016290   6.7600960  71.6376670  91.2421690   7.0994770
  72.9559730  90.8900290   6.4437750  56.6324280  96.6809060   9.6855340
  57.1363300  96.1016340  10.2571570  55.8931700  96.9649290  10.2231710
  58.6647360  94.8238650  10.5805410  58.7052700  94.5252520  11.4890640
  59.5192860  95.2246260  10.4212930  60.6053170  93.4030750   8.5479900
  60.0749630  92.9121700   7.9203240  61.2741240  93.8314950   8.0137830
  69.9753400  95.2096370  10.3160240  70.5574170  94.4548690  10.2280720
  70.1515170  95.7403810   9.5391720  61.0925470  90.3693120   8.6277190
  60.9982340  89.7513870   7.9028060  60.5122860  91.0959410   8.4007100
  63.8586910  88.9266360   5.6604580  63.4104210  88.9490620   4.8150130
  63.2252110  88.5285380   6.2574880  66.6010360  95.5536870   7.6654860
  66.7206570  94.9578010   8.4049700  67.4604360  95.5906560   7.2456160
  68.9398260  96.1074060   6.2417370  68.4133480  96.6316680   5.6382510
  69.2829600  96.7401450   6.8727100  63.3679130  92.0958220   8.9230680
  63.9578820  91.7874070   9.6108500  62.5499370  91.6237970   9.0790580
  68.1872560  91.7124030   9.1563700  67.4988080  91.0505570   9.0913690
  68.9078580  91.2662300   9.6012160  57.7333950  96.4542890   4.5968870
  58.1006990  96.3670290   5.4764890  57.1644770  95.6909440   4.4975730
  72.5337810  94.9227270   7.6099340  72.3023900  94.6940020   6.7097290
  72.7942360  95.8426820   7.5644230  57.2849950  93.3651980   8.5027290
  56.3906000  93.3318740   8.8421000  57.8247500  93.5638770   9.2678540
  70.9725880  90.1483700  10.3879040  71.8496060  90.1567100  10.7713040
  70.9846720  89.4114540   9.7771390  72.5978870  94.0853110   4.7986610
  71.6481580  94.0516650   4.9131600  72.7791880  94.9953220   4.5636380
  57.7889660  87.6400310   2.8510510  58.4365850  87.0897690   2.4105670
  58.2091500  87.8943460   3.6726320  71.6842000  87.8341670   6.2080150
  72.3214220  88.4475810   6.5739340  71.8316890  87.8702330   5.2629380
  57.5421660  87.7955980   5.5935830  57.1936480  88.2519800   6.3594010
  57.2109360  86.9013110   5.6758260  65.0546480  88.9867860   9.1155250
  64.9935370  89.5789690   9.8650660  65.9946860  88.8793820   8.9705510
  67.6921040  88.6437920   8.7547540  68.3061450  88.9617210   8.0928620
  68.2370600  88.1586510   9.3743400  58.2142300  87.3232180   8.8686600
  58.7625290  87.1420230   8.1052710  58.2797610  86.5326290   9.4042910
  68.4329080  87.2070060   5.0816830  67.5588920  87.5405170   4.8789760
  68.3239830  86.7343240   5.9068700  69.3401060  89.4140930   6.4658550
  69.0114420  88.5992690   6.0860280  70.2883360  89.3710740   6.3424240
  66.1803900  88.1239900   4.0209740  65.3975690  88.5985400   4.3006500
  65.8866830  87.2194730   3.9122920  62.2162860  87.9710550  10.5723310
  61.9347130  88.4744150   9.8084130  62.5982560  87.1732300  10.2065440
  68.8178320  87.3864130  11.1503780  68.7043770  87.7058740  12.0455300
  69.6348060  87.7876640  10.8541060  67.7236470  76.6313110  94.1599460
  67.6430520  75.7167720  93.8891170  67.3100890  77.1280180  93.4539170
  69.8761940  82.8152320  94.8207860  69.4143470  82.0439560  95.1495030
  70.6887490  82.8418390  95.3260310  58.2812290  73.6813830  90.7026880
  57.3928990  74.0229800  90.6006760  58.5653480  73.4814150  89.8107710
  66.1025250  85.1010330  94.4411850  65.4836690  85.5567830  93.8706290
  66.9577030  85.2561790  94.0401550  60.4573680  72.2645330  91.7365260
  60.5640430  73.1649060  92.0434020  59.5466040  72.2163300  91.4459910
  70.1092790  71.3870140  93.2076160  70.9302410  70.8966710  93.2501640
  70.1426870  71.9767800  93.9608000  66.9688600  79.9849570  91.8343760
  66.3505870  80.4499020  91.2706480  67.4811850  80.6777050  92.2513270
  56.3371800  80.6706100  89.2083390  55.9599780  81.1593200  88.4768290
  56.5944870  81.3431380  89.8389920  63.9460730  69.0722490  94.6668900
  64.2535710  68.5169380  93.9504400  63.0161430  69.2066950  94.4841890
  70.7921210  81.5106000  92.0466530  70.6817540  80.5680330  92.1715950
  70.7889460  81.8721640  92.9329290  66.3341490  77.1371320  91.4029020
  65.4070770  77.0708700  91.6317490  66.4866310  78.0751450  91.2884260
  66.3210570  73.4088320  88.3996180  65.3814240  73.5702280  88.4848640
  66.6393830  74.1274000  87.8532170  70.3638780  78.6991620  91.9064270
  69.7451200  78.3611170  91.2590570  70.3463230  78.0551380  92.6143460
  61.9398130  77.6636060  94.1848750  61.5355130  76.9513310  93.6894650
  62.0261250  77.3189300  95.0736790  68.5403480  77.9378430  88.9137020
  68.9796760  77.1000860  88.7674840  69.2531900  78.5707830  89.0001160
  66.6498860  82.8774500  92.8818260  67.0894770  83.6198830  92.4673650
  66.5885750  83.1201070  93.8057220  72.1220620  69.1921240  87.2278060
  71.8093280  69.2848070  88.1277130  72.8833090  69.7702270  87.1775490
  58.6402760  76.5581040  91.6855400  58.5200360  77.2843130  91.0736670
  58.3303650  75.7883950  91.2083310  57.5235760  81.4296370  93.9030220
  57.1163840  81.5710960  93.0483820  58.4148770  81.1456530  93.7001430
  69.3169040  85.8643620  90.2381270  69.1570180  85.5746560  91.1363100
  69.1515750  85.0883750  89.7026500  61.7957420  85.6442150  92.0152890
  61.6199900  84.7277690  91.8020690  60.9413160  86.0029440  92.2550690
  69.0195170  83.3731180  88.7979270  68.3260330  83.3708470  88.1381550
  69.7618030  82.9490500  88.3673440  68.5845100  84.9993890  92.8727760
  69.0402050  84.2183270  93.1866380  68.9237620  85.7100710  93.4168940
  61.1066420  69.9016110  95.0679070  60.6634570  70.6825650  94.7363590
  61.6651410  70.2246000  95.7750010  64.2225240  69.5226810  89.9484900
  63.5979420  69.5186680  90.6738210  64.1355360  68.6557770  89.5520870
  60.8980640  75.0249680  92.7960320  60.6721560  74.8086850  93.7006940
  60.1173170  75.4578140  92.4506290  68.1278400  75.0313050  91.3950970
  67.5287290  75.7548850  91.2114590  68.6758010  74.9689830  90.6127420
  66.7343270  73.6676590  93.4254250  67.1272840  73.9848790  92.6122940
  67.0960120  72.7888470  93.5398770  55.9577670  74.1997510  86.8587170
  55.8752340  75.1428270  87.0002160  55.6060730  74.0572420  85.9799520
  63.7575800  72.9336540  95.9257520  63.7611860  72.4926490  95.0762060
  64.6526920  73.2553870  96.0329340  59.6078180  72.8163030  94.8851730
  59.2678230  73.2938260  95.6418780  58.8455500  72.3628150  94.5252830
  63.8195950  73.9348620  88.9164280  63.9408770  73.8935100  89.8650100
  63.4344460  74.7972770  88.7611010  62.8317450  76.2449760  88.3147580
  62.2634350  75.7968010  87.6883490  63.5406450  76.6042540  87.7812730
  56.9224260  71.7382010  93.8016400  56.6371180  71.3737680  94.6395020
  56.8603120  71.0062470  93.1879540  60.3764930  80.2407950  90.5873990
  59.6027190  79.7005570  90.4272710  61.1059560  79.7214560  90.2491750
  66.5962850  70.6311270  90.5229770  65.7827460  70.1324440  90.4475080
  66.4024800  71.4709520  90.1066120  69.3111240  75.0030920  88.8191930
  70.1990860  75.3148150  88.6443270  69.2816330  74.1303170  88.4272510
  60.4202330  79.9088330  94.2252800  60.9381000  79.1056590  94.1709690
  59.9686350  79.8467470  95.0669630  65.3071830  81.1754610  89.4980100
  65.6487530  81.9196840  89.0023420  64.4784540  81.4885730  89.8604930
  71.5825510  76.3142760  88.2871790  71.4989230  76.7456980  87.4368230
  72.3019700  76.7741110  88.7198610  72.6112760  83.1685020  91.0153920
  71.9688920  82.5140640  91.2897640  72.2243420  83.5740110  90.2394590
  68.1899240  80.4970450  94.8625610  68.5423060  79.8998580  94.2026980
  67.3061570  80.1714680  95.0333860  64.2762520  81.2568140  92.2696020
  64.9633650  81.8037350  92.6503610  63.4894940  81.8008870  92.3045630
  56.4154920  76.8740960  87.7613100  57.2849770  77.1565760  88.0449020
  55.9245240  77.6876830  87.6461910  63.5789730  78.2614170  91.8821380
  64.0352510  79.0719420  92.1081570  63.2277940  77.9437310  92.7139870
  59.4801510  68.6051820  92.3543900  59.3516140  68.5969720  93.3028820
  58.6563530  68.9434910  92.0034910  71.0010140  82.0601480  87.5530270
  70.7747720  81.3431920  88.1454910  70.6106340  81.8113920  86.7152020
  56.7826170  86.0868340  88.3274730  57.1423810  86.6857680  87.6732000
  56.6418510  86.6328230  89.1009760  70.5826390  79.9773420  89.2144430
  70.2948090  80.4386110  90.0022310  71.3778560  79.5171190  89.4828650
  62.7994790  83.4699540  89.1448400  62.7904890  84.2029230  88.5292910
  61.8793150  83.2231120  89.2375360  58.4001430  78.6914430  89.8895160
  57.7929380  79.4313330  89.8990460  58.8750780  78.7813790  89.0633360
  71.3396250  71.8122190  90.3739610  70.7109410  71.9167860  89.6597840
  70.8448170  72.0318970  91.1633490  65.7854390  83.5327780  87.8073590
  65.8866370  83.3291770  86.8775570  64.8856130  83.2786060  88.0121370
  63.3080280  74.0908140  91.7897490  62.5996430  74.5594480  92.2311100
  63.5924760  73.4330150  92.4242680  67.3395710  70.8158800  93.2293280
  67.2163490  70.8344930  92.2802790  68.2880270  70.8637740  93.3491680
  64.4272500  86.0514100  92.5021260  64.6814000  86.0135490  91.5800630
  63.4784980  85.9247430  92.4949510  61.5115300  72.3993220  89.1648200
  62.3605830  72.8363370  89.0988390  61.1446570  72.7113480  89.9920260
  70.4325080  76.9705980  94.0779770  69.4915220  76.9856210  94.2527460
  70.7469150  76.1841940  94.5240070  60.4106720  78.6525580  87.6383730
  61.1769990  78.5406940  88.2009160  60.4881410  77.9563550  86.9860500
  59.1053480  76.0850650  88.3216620  59.1857070  75.1378160  88.4334020
  59.9973230  76.4157530  88.4277280  59.9068190  86.2346040  95.4251160
  60.6430670  85.6861500  95.6959730  60.2909110  87.1002050  95.2857150
  56.7913670  82.3019610  91.2992670  55.8653450  82.5440750  91.2898080
  57.2570100  83.1293870  91.1777420  63.0170500  85.4076350  87.2476730
  63.8099110  85.6965180  86.7958520  62.4974850  84.9768520  86.5689210
  72.0700670  84.6346480  88.6713470  71.7842180  84.2211620  87.8567650
  71.8720220  85.5634190  88.5513990  63.5347900  80.6279760  87.1119080
  63.4298540  80.0132110  87.8380460  63.3672120  80.1045650  86.3282090
  66.7750630  79.6899790  87.7161070  66.2260730  80.1369090  88.3603810
  67.3969890  79.1849040  88.2398740  62.4425750  78.6490710  89.6126370
  62.8642170  78.4830580  90.4557760  62.5676590  77.8390940  89.1181510
  64.9553390  77.6728320  86.8603470  65.4759050  76.9577340  86.4944620
  65.6021790  78.3114190  87.1603980  61.3384650  74.7223940  86.5584530
  61.1373710  73.8591300  86.9197870  61.1676700  74.6357300  85.6206130
  68.8172960  69.5332170  89.0871410  69.0975250  68.6900070  89.4430830
  68.0438690  69.7655280  89.6010160  60.1367450  71.8224560  86.5462410
  60.4393350  71.8291990  85.6381560  60.8762040  71.4722420  87.0430070
  63.3552380  70.7659180  87.5318610  63.0074380  70.0883170  86.9521060
  63.5565150  70.3048690  88.3462000  65.5201420  85.7539930  89.1505210
  66.4152210  86.0924900  89.1723970  65.5519050  85.0319340  88.5229490
  59.1597580  81.1266980  87.3792210  59.5972450  81.6696650  88.0349790
  59.6445310  80.3013930  87.3888550  56.3743380  83.9156010  94.8312470
  56.7046390  83.0477070  94.5991110  56.8034380  84.1214530  95.6617430
  60.9705300  82.2465020  92.4914440  60.6700840  82.1229990  93.3918350
  60.8642790  81.3873610  92.0830170  73.7397220  82.0261420  87.1941120
  72.9090180  82.0938070  87.6648350  73.9169050  82.9165540  86.8907980
  73.1953680  78.7708900  89.6975320  73.9572590  79.3405550  89.8035010
  73.2108050  78.2036100  90.4683630  56.6958020  77.2946830  93.9282980
  56.0406860  77.0258470  93.2842680  57.5335970  77.1851310  93.4784960
  74.2013650  79.6259000  94.5417250  74.5722480  78.8426320  94.1353220
  74.8415580  80.3148100  94.3634550  73.2472850  79.0643270  86.8547840
  73.5221690  79.9722150  86.7267060  73.0583590  79.0005800  87.7909830
  69.6448460  72.0888120  88.1501470  70.0633340  71.9019100  87.3098130
  69.3384520  71.2367170  88.4604400  73.1438190  77.0012260  91.8477270
  72.7681790  76.2340190  91.4158560  72.4141310  77.3834960  92.3352200
  55.9096100  74.5045760  89.8708310  55.0060180  74.7675960  89.6959970
  56.3936720  74.7756930  89.0908270  72.4189150  75.2269750  95.1484510
  72.9426630  74.7332400  94.5174680  73.0048570  75.3620110  95.8932080
  58.4523310  73.5611300  87.7802690  59.1615010  73.1394520  87.2949970
  57.7363250  73.6286530  87.1486040  58.0997470  69.6150630  86.8205340
  58.8225600  70.1559570  87.1386560  58.3721990  69.3414050  85.9446880
  71.9089120  74.4843100  91.0876920  72.4048240  74.2513970  91.8725800
  71.7105190  73.6454940  90.6714560  73.3376280  73.1204050  93.6214600
  73.2275560  72.9660090  94.5596870  74.0983870  72.5924990  93.3790010
  74.2266550  70.9511970  86.8620740  75.1515860  70.8193150  86.6539030
  74.2042340  71.0304790  87.8157190  74.3005040  71.7222630  89.4877450
  73.5056540  71.6567750  90.0170360  74.5048320  72.6573270  89.4762800
  71.2423460  85.7614180  93.4815840  71.8382530  85.4398750  92.8050260
  71.5001610  85.2886000  94.2729110  70.7324970  70.0519510  95.9376280
  71.1733060  69.9964610  95.0897880  70.4632560  70.9677520  96.0086460
  72.5963540  69.6834750  93.9485100  72.5351940  68.7395970  93.8016120
  73.3755570  69.7914840  94.4938560  56.9016290  85.8227110  92.9109050
  56.7338330  85.1897790  93.6090940  56.0350800  86.0286510  92.5603240
  57.5244310  69.6543890  90.4140910  58.2823670  69.7672770  89.8404940
  57.0621480  70.4913090  90.3684340  64.0658120  71.7683160  93.4043220
  63.2532630  71.3940050  93.0639100  64.5699760  71.0128240  93.7064410
  68.5683100  68.4325610  94.6426290  69.1712470  69.0045820  95.1174810
  67.8276090  68.9965050  94.4200190  71.7117700  68.8347170  89.9166570
  71.9068330  69.7330620  90.1834000  70.9247570  68.6034250  90.4099520
  58.5078990  84.5160340  90.3559190  57.9826610  84.8968370  89.6521150
  58.4323570  85.1411110  91.0768900  59.8969460  70.1807940  88.9542880
  60.4262220  69.3937740  88.8250830  60.5297780  70.8599130  89.1878410
  62.0907300  69.9183080  92.0088270  61.4610040  69.2170390  92.1758400
  61.5512440  70.6787210  91.7921430  73.2644310  86.0747880  91.6773130
  73.4396500  85.3885620  91.0334050  72.5665880  86.5994930  91.2849800
  61.1071960  86.4642720  89.2308440  61.8390780  86.1802000  88.6832330
  61.3665630  86.2256000  90.1207820  60.2686750  82.5807450  89.2354770
  59.6395630  83.0492550  89.7840600  60.3834580  81.7356670  89.6700960
  67.7236470  76.6313110  75.3855970  67.6430520  75.7167720  75.1147680
  67.3100890  77.1280180  74.6795680  65.8554510  78.4092130  77.2665240
  65.0796610  77.9292570  77.5563810  66.5067440  77.7297780  77.0921400
  59.8720340  78.7211940  78.1441000  59.0405220  78.4660650  78.5437510
  60.4801320  78.7922710  78.8798920  69.8761940  82.8152320  76.0464370
  69.4143470  82.0439560  76.3751540  70.6887490  82.8418390  76.5516820
  59.8521600  82.7552030  78.3399020  60.1549640  81.8649770  78.1609240
  60.5965190  83.3122250  78.1121270  58.2812290  73.6813830  71.9283390
  57.3928990  74.0229800  71.8263270  58.5653480  73.4814150  71.0364220
  56.2445300  76.2819480  77.8123090  56.8161410  75.5141680  77.8126730
  56.2446840  76.5808240  76.9029700  66.1025250  85.1010330  75.6668360
  65.4836690  85.5567830  75.0962800  66.9577030  85.2561790  75.2658060
  65.2963500  81.0849320  77.2735400  65.2271780  80.1439260  77.1124530
  66.0583360  81.1750730  77.8457970  57.4870170  71.6903840  79.5992020
  57.3073010  70.7929590  79.8794780  57.0850250  72.2375710  80.2738970
  66.3268670  73.8919700  77.5004330  66.7033490  73.0191580  77.3878000
  66.2288180  74.2278400  76.6094770  60.4573680  72.2645330  72.9621770
  60.5640430  73.1649060  73.2690530  59.5466040  72.2163300  72.6716420
  70.1092790  71.3870140  74.4332670  70.9302410  70.8966710  74.4758150
  70.1426870  71.9767800  75.1864510  58.1056840  74.1864340  78.2074360
  58.7866950  74.4502710  78.8261760  57.7904890  73.3465210  78.5412370
  62.2981410  75.2331700  77.2946950  62.8059630  75.7312670  77.9351970
  62.8294650  74.4566900  77.1186310  74.3992340  73.4036890  80.9976300
  73.6944510  73.7918600  80.4791410  74.6650260  74.0987180  81.5997230
  60.5817510  69.8730260  81.5610370  60.5835950  70.3902650  80.7556270
  59.7521820  69.3960440  81.5380300  66.9688600  79.9849570  73.0600270
  66.3505870  80.4499020  72.4962990  67.4811850  80.6777050  73.4769780
  61.8320360  79.5125440  79.7383870  61.4989740  80.1394360  80.3804940
  62.0087040  80.0387320  78.9585540  70.3454270  73.3270520  77.2060210
  69.6409840  73.6155410  77.7863320  70.7066430  74.1370630  76.8459770
  60.2632840  71.5840220  79.5680820  60.6049650  72.4282270  79.2734690
  59.3248650  71.7323960  79.6846160  61.0439460  81.4806240  81.5533050
  61.6613460  82.1557320  81.2717500  60.1832580  81.8894220  81.4620550
  56.3371800  80.6706100  70.4339900  55.9599780  81.1593200  69.7024800
  56.5944870  81.3431380  71.0646430  71.9617050  82.9445650  79.4687690
  71.2780570  83.6144760  79.4604360  72.5011340  83.1426300  78.7032550
  73.4141190  72.7725310  77.5969420  72.4666100  72.8064290  77.7284850
  73.7391180  73.5864260  77.9818780  63.9460730  69.0722490  75.8925410
  64.2535710  68.5169380  75.1760910  63.0161430  69.2066950  75.7098400
  69.4975790  84.7889780  78.1832870  69.5102950  84.3852070  77.3155130
  68.9451010  85.5637070  78.0794300  70.7921210  81.5106000  73.2723040
  70.6817540  80.5680330  73.3972460  70.7889460  81.8721640  74.1585800
  68.8961230  79.6919620  79.5115480  69.3130020  79.4779730  78.6768940
  69.6201050  79.9492410  80.0824100  66.3341490  77.1371320  72.6285530
  65.4070770  77.0708700  72.8574000  66.4866310  78.0751450  72.5140770
  66.3210570  73.4088320  69.6252690  65.3814240  73.5702280  69.7105150
  66.6393830  74.1274000  69.0788680  72.8423330  78.0906840  79.6031720
  72.0141960  78.1599930  79.1281850  73.4373810  78.6761150  79.1347550
  70.3638780  78.6991620  73.1320780  69.7451200  78.3611170  72.4847080
  70.3463230  78.0551380  73.8399970  69.8065340  74.8776160  80.5486590
  69.3936520  75.7029870  80.8026580  69.0741290  74.2921200  80.3562950
  61.9398130  77.6636060  75.4105260  61.5355130  76.9513310  74.9151160
  62.0261250  77.3189300  76.2993300  62.4079830  81.3503620  77.5744470
  62.1108120  80.7449090  76.8952250  63.3579650  81.3880930  77.4633830
  60.6526750  74.4379270  79.1904300  61.2041340  74.5474610  78.4157550
  61.1670260  74.8116870  79.9059530  70.4965440  84.9235490  81.2367570
  70.0196000  85.7307680  81.0440180  69.8127230  84.2713820  81.3893780
  61.4998260  81.0885310  84.2252270  60.6026790  81.3125280  84.4725670
  61.5251130  81.2120250  83.2763670  68.5403480  77.9378430  70.1393530
  68.9796760  77.1000860  69.9931350  69.2531900  78.5707830  70.2257670
  60.3269480  77.9598630  82.8009640  60.1877250  78.8321430  83.1697040
  59.4450840  77.6171440  82.6557580  66.6498860  82.8774500  74.1074770
  67.0894770  83.6198830  73.6930160  66.5885750  83.1201070  75.0313730
  62.1249830  83.9020330  85.0094790  62.0965260  84.3063280  84.1423220
  61.9614800  82.9730690  84.8466390  72.1220620  69.1921240  68.4534570
  71.8093280  69.2848070  69.3533640  72.8833090  69.7702270  68.4032000
  58.6402760  76.5581040  72.9111910  58.5200360  77.2843130  72.2993180
  58.3303650  75.7883950  72.4339820  74.0764650  84.6847430  86.3058960
  74.5524370  85.1630320  86.9848040  74.6971810  84.6164920  85.5804460
  56.2788130  79.7296180  78.7180550  56.3568550  79.8644950  77.7736270
  56.8929810  79.0212070  78.9108670  57.5235760  81.4296370  75.1286730
  57.1163840  81.5710960  74.2740330  58.4148770  81.1456530  74.9257940
  73.4797900  81.8760280  83.4658970  73.6060960  81.6372160  82.5476150
  73.5219280  81.0444820  83.9381050  67.3414640  85.5788280  82.0353780
  67.8559310  85.4896290  82.8376210  66.4983720  85.9247980  82.3281690
  69.3169040  85.8643620  71.4637780  69.1570180  85.5746560  72.3619610
  69.1515750  85.0883750  70.9283010  61.7957420  85.6442150  73.2409400
  61.6199900  84.7277690  73.0277200  60.9413160  86.0029440  73.4807200
  69.0195170  83.3731180  70.0235780  68.3260330  83.3708470  69.3638060
  69.7618030  82.9490500  69.5929950  68.5845100  84.9993890  74.0984270
  69.0402050  84.2183270  74.4122890  68.9237620  85.7100710  74.6425450
  73.3321910  73.9292740  84.4308710  72.7166180  74.4372410  83.9024170
  73.0118330  73.0291070  84.3734650  56.3347650  80.7710350  81.2575010
  56.4978690  80.3015710  80.4394380  56.8000100  80.2633910  81.9223850
  61.1066420  69.9016110  76.2935580  60.6634570  70.6825650  75.9620100
  61.6651410  70.2246000  77.0006520  65.3936230  72.7684630  81.8970900
  64.9315600  72.9767650  82.7090840  64.9914340  71.9543980  81.5941570
  70.3940740  73.9893580  83.0267560  69.5434330  73.6899330  83.3476630
  70.2342530  74.2335590  82.1151380  67.4890450  75.4895330  85.1266350
  67.8143860  74.6559080  84.7868580  68.2770780  76.0123850  85.2744680
  64.2225240  69.5226810  71.1741410  63.5979420  69.5186680  71.8994720
  64.1355360  68.6557770  70.7777380  63.1442320  70.4463440  78.1525180
  63.4414650  71.3526270  78.0717200  63.6927880  69.9582220  77.5384750
  60.8980640  75.0249680  74.0216830  60.6721560  74.8086850  74.9263450
  60.1173170  75.4578140  73.6762800  68.1278400  75.0313050  72.6207480
  67.5287290  75.7548850  72.4371100  68.6758010  74.9689830  71.8383930
  63.3379850  75.9235260  84.6877100  63.2423450  74.9829990  84.5377500
  64.1811830  76.1450330  84.2925170  66.7343270  73.6676590  74.6510760
  67.1272840  73.9848790  73.8379450  67.0960120  72.7888470  74.7655280
  58.4690390  72.3348930  82.8410880  58.0753780  73.1824140  83.0483660
  57.7808790  71.6975300  83.0319520  65.0435440  72.4183900  85.9107620
  64.3533760  72.2256100  86.5453710  65.7867740  72.7018540  86.4431920
  55.7707440  70.2577390  76.8740960  55.4820490  70.8280250  77.5865940
  56.5153200  69.7781840  77.2372190  55.9577670  74.1997510  68.0843680
  55.8752340  75.1428270  68.2258670  55.6060730  74.0572420  67.2056030
  67.3198410  76.2582340  78.7461540  66.5879530  76.7669150  79.0951640
  66.9222750  75.4412320  78.4450320  63.7575800  72.9336540  77.1514030
  63.7611860  72.4926490  76.3018570  64.6526920  73.2553870  77.2585850
  59.6078180  72.8163030  76.1108240  59.2678230  73.2938260  76.8675290
  58.8455500  72.3628150  75.7509340  63.8195950  73.9348620  70.1420790
  63.9408770  73.8935100  71.0906610  63.4344460  74.7972770  69.9867520
  67.7824320  71.7116020  78.1584480  67.7997060  72.1624670  79.0026330
  67.5339900  70.8121660  78.3717920  62.8317450  76.2449760  69.5404090
  62.2634350  75.7968010  68.9140000  63.5406450  76.6042540  69.0069240
  71.2095070  69.1248200  83.9970860  71.5340840  68.3937860  84.5228840
  71.2451580  68.8061840  83.0951850  57.9086630  80.1461780  83.4170820
  57.5241420  79.5055450  84.0153780  58.2198820  80.8497900  83.9865550
  64.0583770  76.9938320  78.8979440  64.4253900  76.5196890  79.6440780
  63.8688830  77.8679890  79.2387780  56.9224260  71.7382010  75.0272910
  56.6371180  71.3737680  75.8651530  56.8603120  71.0062470  74.4136050
  61.8483140  76.0346960  81.2163650  61.5440210  76.9138940  81.4414010
  62.8029600  76.0946750  81.2521090  60.3764930  80.2407950  71.8130500
  59.6027190  79.7005570  71.6529220  61.1059560  79.7214560  71.4748260
  71.1352910  79.2373310  77.6056890  71.8552030  79.7328600  77.2153000
  70.9334730  78.5591200  76.9610760  66.5962850  70.6311270  71.7486280
  65.7827460  70.1324440  71.6731590  66.4024800  71.4709520  71.3322630
  66.5171710  79.3082370  83.4925890  66.4509020  78.3878040  83.2383480
  65.8876850  79.4057810  84.2070530  69.3111240  75.0030920  70.0448440
  70.1990860  75.3148150  69.8699780  69.2816330  74.1303170  69.6529020
  60.4202330  79.9088330  75.4509310  60.9381000  79.1056590  75.3966200
  59.9686350  79.8467470  76.2926140  65.3071830  81.1754610  70.7236610
  65.6487530  81.9196840  70.2279930  64.4784540  81.4885730  71.0861440
  57.9046870  76.8749700  82.3635010  57.5461810  77.5403550  82.9508350
  57.6101430  76.0433250  82.7347630  61.1059990  77.3333940  85.2474560
  60.8060130  77.4791120  84.3502380  61.8771230  76.7739230  85.1547950
  66.4488440  82.1302940  83.2429690  66.4632980  81.1983900  83.0248600
  65.7413540  82.2162700  83.8819460  71.5825510  76.3142760  69.5128300
  71.4989230  76.7456980  68.6624740  72.3019700  76.7741110  69.9455120
  72.6599650  78.7710280  82.5898270  71.9347840  79.3639060  82.3927660
  73.1875110  78.7633820  81.7911640  72.6112760  83.1685020  72.2410430
  71.9688920  82.5140640  72.5154150  72.2243420  83.5740110  71.4651100
  68.1899240  80.4970450  76.0882120  68.5423060  79.8998580  75.4283490
  67.3061570  80.1714680  76.2590370  64.2762520  81.2568140  73.4952530
  64.9633650  81.8037350  73.8760120  63.4894940  81.8008870  73.5302140
  56.4154920  76.8740960  68.9869610  57.2849770  77.1565760  69.2705530
  55.9245240  77.6876830  68.8718420  63.5789730  78.2614170  73.1077890
  64.0352510  79.0719420  73.3338080  63.2277940  77.9437310  73.9396380
  65.8822340  83.7720510  80.3370190  66.5264560  83.9779890  81.0143610
  66.2451780  83.0108910  79.8841040  59.4801510  68.6051820  73.5800410
  59.3516140  68.5969720  74.5285330  58.6563530  68.9434910  73.2291420
  67.1554420  81.7752860  79.0547640  67.7976650  81.0746020  79.1679810
  67.6803770  82.5551300  78.8744530  71.0010140  82.0601480  68.7786780
  70.7747720  81.3431920  69.3711420  70.6106340  81.8113920  67.9408530
  68.9292040  82.5747760  82.2583700  69.2648280  83.1614450  82.9361620
  68.0092380  82.4440470  82.4881490  56.7826170  86.0868340  69.5531240
  57.1423810  86.6857680  68.8988510  56.6418510  86.6328230  70.3266270
  56.4795440  70.3642940  83.0407110  55.7653960  70.5639860  83.6459720
  56.8990480  69.5882510  83.4121910  70.5826390  79.9773420  70.4400940
  70.2948090  80.4386110  71.2278820  71.3778560  79.5171190  70.7085160
  56.7668030  84.3523200  84.0273640  56.8759150  83.4117940  83.8869030
  56.1148590  84.6177950  83.3787370  64.7580620  82.6239090  85.4271760
  64.4377490  81.9048330  85.9717450  64.0838980  83.2994160  85.5007820
  62.7994790  83.4699540  70.3704910  62.7904890  84.2029230  69.7549420
  61.8793150  83.2231120  70.4631870  58.4001430  78.6914430  71.1151670
  57.7929380  79.4313330  71.1246970  58.8750780  78.7813790  70.2889870
  67.9734220  72.8565250  80.7908560  68.3415040  72.0360460  81.1188130
  67.1132420  72.9167140  81.2064210  71.3396250  71.8122190  71.5996120
  70.7109410  71.9167860  70.8854350  70.8448170  72.0318970  72.3890000
  65.7854390  83.5327780  69.0330100  65.8866370  83.3291770  68.1032080
  64.8856130  83.2786060  69.2377880  63.3080280  74.0908140  73.0154000
  62.5996430  74.5594480  73.4567610  63.5924760  73.4330150  73.6499190
  64.9336210  75.5104840  81.0146530  65.4321460  75.9850660  81.6798380
  65.0759160  74.5868360  81.2216560  67.3395710  70.8158800  74.4549790
  67.2163490  70.8344930  73.5059300  68.2880270  70.8637740  74.5748190
  64.4272500  86.0514100  73.7277770  64.6814000  86.0135490  72.8057140
  63.4784980  85.9247430  73.7206020  61.5115300  72.3993220  70.3904710
  62.3605830  72.8363370  70.3244900  61.1446570  72.7113480  71.2176770
  72.1403070  71.7272800  81.8574920  71.6376670  72.4678200  82.1968730
  72.9559730  72.1156800  81.5411710  70.4325080  76.9705980  75.3036280
  69.4915220  76.9856210  75.4783970  70.7469150  76.1841940  75.7496580
  60.4106720  78.6525580  68.8640240  61.1769990  78.5406940  69.4265670
  60.4881410  77.9563550  68.2117010  59.1053480  76.0850650  69.5473130
  59.1857070  75.1378160  69.6590530  59.9973230  76.4157530  69.6533790
  72.4350660  84.1414830  76.9790540  72.5598080  84.9646000  77.4514350
  73.3016220  83.9305560  76.6314690  59.9068190  86.2346040  76.6507670
  60.6430670  85.6861500  76.9216240  60.2909110  87.1002050  76.5113660
  56.7913670  82.3019610  72.5249180  55.8653450  82.5440750  72.5154590
  57.2570100  83.1293870  72.4033930  58.9126470  85.4192110  85.8393250
  59.7139200  85.7404160  86.2528650  58.3978290  85.0587690  86.5613160
  63.0170500  85.4076350  68.4733240  63.8099110  85.6965180  68.0215030
  62.4974850  84.9768520  67.7945720  67.7491100  81.5271980  85.7868660
  67.1429260  81.5503580  85.0464410  67.4445210  80.7955020  86.3235910
  69.1791470  85.2552270  84.3978070  70.1313220  85.1710290  84.3478310
  69.0319690  85.9193980  85.0711860  72.0700670  84.6346480  69.8969980
  71.7842180  84.2211620  69.0824160  71.8720220  85.5634190  69.7770500
  56.6324280  77.9065570  84.7829300  57.1363300  77.3272850  85.3545530
  55.8931700  78.1905800  85.3205670  63.5347900  80.6279760  68.3375590
  63.4298540  80.0132110  69.0636970  63.3672120  80.1045650  67.5538600
  63.6862220  79.3136560  84.3164820  62.9207890  79.8821560  84.2319490
  63.8678180  79.0212770  83.4233050  66.7750630  79.6899790  68.9417580
  66.2260730  80.1369090  69.5860320  67.3969890  79.1849040  69.4655250
  70.8285570  81.0441890  84.8739840  71.5695040  81.3817650  84.3707300
  70.0658250  81.2133950  84.3209610  58.6647360  76.0495160  85.6779370
  58.7052700  75.7509030  86.5864600  59.5192860  76.4502770  85.5186890
  62.4425750  78.6490710  70.8382880  62.8642170  78.4830580  71.6814270
  62.5676590  77.8390940  70.3438020  60.6053170  74.6287260  83.6453860
  60.0749630  74.1378210  83.0177200  61.2741240  75.0571460  83.1111790
  64.9553390  77.6728320  68.0859980  65.4759050  76.9577340  67.7201130
  65.6021790  78.3114190  68.3860490  69.5031230  79.0956720  83.4095050
  69.9172250  79.2501800  84.2585470  68.5682230  79.2211940  83.5720830
  69.9753400  76.4352880  85.4134200  70.5574170  75.6805200  85.3254680
  70.1515170  76.9660320  84.6365680  61.0925470  71.5949630  83.7251150
  60.9982340  70.9770380  83.0002020  60.5122860  72.3215920  83.4981060
  63.8586910  70.1522870  80.7578540  63.4104210  70.1747130  79.9124090
  63.2252110  69.7541890  81.3548840  64.2646460  79.0477200  81.3790980
  64.6834570  79.8909930  81.2067220  63.3455090  79.1849240  81.1497760
  66.6010360  76.7793380  82.7628820  66.7206570  76.1834520  83.5023660
  67.4604360  76.8163070  82.3430120  68.9398260  77.3330570  81.3391330
  68.4133480  77.8573190  80.7356470  69.2829600  77.9657960  81.9701060
  61.3384650  74.7223940  67.7841040  61.1373710  73.8591300  68.1454380
  61.1676700  74.6357300  66.8462640  62.1153880  85.3530210  82.4948710
  61.5774970  86.0776270  82.1757410  62.3687840  84.8760550  81.7046050
  63.3679130  73.3214730  84.0204640  63.9578820  73.0130580  84.7082460
  62.5499370  72.8494480  84.1764540  68.1872560  72.9380540  84.2537660
  67.4988080  72.2762080  84.1887650  68.9078580  72.4918810  84.6986120
  68.8172960  69.5332170  70.3127920  69.0975250  68.6900070  70.6687340
  68.0438690  69.7655280  70.8266670  60.1367450  71.8224560  67.7718920
  60.4393350  71.8291990  66.8638070  60.8762040  71.4722420  68.2686580
  64.9716090  86.5881420  82.7535360  64.8974790  87.4916560  83.0607730
  64.0694930  86.2693320  82.7257430  63.3552380  70.7659180  68.7575120
  63.0074380  70.0883170  68.1777570  63.5565150  70.3048690  69.5718510
  65.5201420  85.7539930  70.3761720  66.4152210  86.0924900  70.3980480
  65.5519050  85.0319340  69.7486000  59.1597580  81.1266980  68.6048720
  59.5972450  81.6696650  69.2606300  59.6445310  80.3013930  68.6145060
  56.3743380  83.9156010  76.0568980  56.7046390  83.0477070  75.8247620
  56.8034380  84.1214530  76.8873940  60.9705300  82.2465020  73.7170950
  60.6700840  82.1229990  74.6174860  60.8642790  81.3873610  73.3086680
  56.8633590  84.7826600  78.7950610  56.4264580  84.9627400  79.6274760
  57.4311270  85.5401220  78.6532330  72.4995770  84.2843600  83.0827920
  71.8997760  84.3436160  82.3391840  72.6289670  83.3448580  83.2124770
  73.7397220  82.0261420  68.4197630  72.9090180  82.0938070  68.8904860
  73.9169050  82.9165540  68.1164490  73.1953680  78.7708900  70.9231830
  73.9572590  79.3405550  71.0291520  73.2108050  78.2036100  71.6940140
  56.6958020  77.2946830  75.1539490  56.0406860  77.0258470  74.5099190
  57.5335970  77.1851310  74.7041470  74.2013650  79.6259000  75.7673760
  74.5722480  78.8426320  75.3609730  74.8415580  80.3148100  75.5891060
  71.1847410  81.0095580  81.1804080  70.3707250  81.4392740  81.4429870
  71.5921610  81.6213990  80.5673130  73.2472850  79.0643270  68.0804350
  73.5221690  79.9722150  67.9523570  73.0583590  79.0005800  69.0166340
  69.6448460  72.0888120  69.3757980  70.0633340  71.9019100  68.5354640
  69.3384520  71.2367170  69.6860910  73.1438190  77.0012260  73.0733780
  72.7681790  76.2340190  72.6415070  72.4141310  77.3834960  73.5608710
  57.7333950  77.6799400  79.6942830  58.1006990  77.5926800  80.5738850
  57.1644770  76.9165950  79.5949690  72.5337810  76.1483780  82.7073300
  72.3023900  75.9196530  81.8071250  72.7942360  77.0683330  82.6618190
  57.2849950  74.5908490  83.6001250  56.3906000  74.5575250  83.9394960
  57.8247500  74.7895280  84.3652500  70.9725880  71.3740210  85.4853000
  71.8496060  71.3823610  85.8687000  70.9846720  70.6371050  84.8745350
  55.9096100  74.5045760  71.0964820  55.0060180  74.7675960  70.9216480
  56.3936720  74.7756930  70.3164780  72.4189150  75.2269750  76.3741020
  72.9426630  74.7332400  75.7431190  73.0048570  75.3620110  77.1188590
  72.5978870  75.3109620  79.8960570  71.6481580  75.2773160  80.0105560
  72.7791880  76.2209730  79.6610340  58.4523310  73.5611300  69.0059200
  59.1615010  73.1394520  68.5206480  57.7363250  73.6286530  68.3742550
  58.0997470  69.6150630  68.0461850  58.8225600  70.1559570  68.3643070
  58.3721990  69.3414050  67.1703390  71.9089120  74.4843100  72.3133430
  72.4048240  74.2513970  73.0982310  71.7105190  73.6454940  71.8971070
  57.7889660  68.8656820  77.9484470  58.4365850  68.3154200  77.5079630
  58.2091500  69.1199970  78.7700280  73.3376280  73.1204050  74.8471110
  73.2275560  72.9660090  75.7853380  74.0983870  72.5924990  74.6046520
  71.6842000  69.0598180  81.3054110  72.3214220  69.6732320  81.6713300
  71.8316890  69.0958840  80.3603340  74.2266550  70.9511970  68.0877250
  75.1515860  70.8193150  67.8795540  74.2042340  71.0304790  69.0413700
  74.3005040  71.7222630  70.7133960  73.5056540  71.6567750  71.2426870
  74.5048320  72.6573270  70.7019310  71.2423460  85.7614180  74.7072350
  71.8382530  85.4398750  74.0306770  71.5001610  85.2886000  75.4985620
  57.5421660  69.0212490  80.6909790  57.1936480  69.4776310  81.4567970
  57.2109360  68.1269620  80.7732220  59.1486030  82.1932090  84.8562980
  59.1055660  81.8225000  85.7377440  59.2797040  83.1309660  84.9964800
  62.8492060  83.7491680  80.4572700  62.6083420  84.0166240  79.5703220
  63.7894700  83.9197410  80.5123560  65.0546480  70.2124370  84.2129210
  64.9935370  70.8046200  84.9624620  65.9946860  70.1050330  84.0679470
  67.6921040  69.8694430  83.8521500  68.3061450  70.1873720  83.1902580
  68.2370600  69.3843020  84.4717360  74.1096220  85.7686060  81.2583340
  73.6154500  86.1654930  80.5410470  73.5009510  85.1435270  81.6520620
  58.2142300  68.5488690  83.9660560  58.7625290  68.3676740  83.2026670
  58.2797610  67.7582800  84.5016870  58.9874060  85.1394340  81.9760760
  58.3934380  85.0079040  82.7150800  58.9797900  84.3032480  81.5102860
  68.4329080  68.4326570  80.1790790  67.5588920  68.7661680  79.9763720
  68.3239830  67.9599750  81.0042660  69.3401060  70.6397440  81.5632510
  69.0114420  69.8249200  81.1834240  70.2883360  70.5967250  81.4398200
  71.7935670  86.4109480  78.5370080  71.3338640  87.1625290  78.1628100
  71.1648130  85.6915950  78.4784880  58.6186290  82.5052720  80.9268800
  57.8920350  81.8858010  80.8594750  58.6795440  82.8993330  80.0566880
  62.2231390  84.7197720  77.7118210  62.7396410  84.1085080  77.1866470
  62.8728770  85.2226500  78.2029220  64.9626890  85.6106210  78.5387190
  65.2504700  85.3560510  77.6620200  65.4750110  85.0583570  79.1292760
  66.1803900  69.3496410  79.1183700  65.3975690  69.8241910  79.3980460
  65.8866830  68.4451240  79.0096880  70.7324970  70.0519510  77.1632790
  71.1733060  69.9964610  76.3154390  70.4632560  70.9677520  77.2342970
  72.5963540  69.6834750  75.1741610  72.5351940  68.7395970  75.0272630
  73.3755570  69.7914840  75.7195070  56.9016290  85.8227110  74.1365560
  56.7338330  85.1897790  74.8347450  56.0350800  86.0286510  73.7859750
  57.5244310  69.6543890  71.6397420  58.2823670  69.7672770  71.0661450
  57.0621480  70.4913090  71.5940850  64.0658120  71.7683160  74.6299730
  63.2532630  71.3940050  74.2895610  64.5699760  71.0128240  74.9320920
  68.5683100  68.4325610  75.8682800  69.1712470  69.0045820  76.3431320
  67.8276090  68.9965050  75.6456700  71.7117700  68.8347170  71.1423080
  71.9068330  69.7330620  71.4090510  70.9247570  68.6034250  71.6356030
  58.5078990  84.5160340  71.5815700  57.9826610  84.8968370  70.8777660
  58.4323570  85.1411110  72.3025410  59.8969460  70.1807940  70.1799390
  60.4262220  69.3937740  70.0507340  60.5297780  70.8599130  70.4134920
  62.0907300  69.9183080  73.2344780  61.4610040  69.2170390  73.4014910
  61.5512440  70.6787210  73.0177940  65.0299250  86.5322310  85.9055390
  65.9566560  86.2966580  85.9491350  65.0149680  87.3594310  85.4241420
  73.2644310  86.0747880  72.9029640  73.4396500  85.3885620  72.2590560
  72.5665880  86.5994930  72.5106310  62.2162860  69.1967060  85.6697270
  61.9347130  69.7000660  84.9058090  62.5982560  68.3988810  85.3039400
  61.1071960  86.4642720  70.4564950  61.8390780  86.1802000  69.9088840
  61.3665630  86.2256000  71.3464330  60.2686750  82.5807450  70.4611280
  59.6395630  83.0492550  71.0097110  60.3834580  81.7356670  70.8957470
  68.8178320  68.6120640  86.2477740  68.7043770  68.9315250  87.1429260
  69.6348060  69.0133150  85.9515020  71.5976810  85.7592170  85.7296430
  72.3902130  85.2641400  85.5222390  71.8909960  86.4382310  86.3372040
  67.7236470  76.6313110  56.6112480  67.6430520  75.7167720  56.3404190
  67.3100890  77.1280180  55.9052190  65.8554510  78.4092130  58.4921750
  65.0796610  77.9292570  58.7820320  66.5067440  77.7297780  58.3177910
  59.8720340  78.7211940  59.3697510  59.0405220  78.4660650  59.7694020
  60.4801320  78.7922710  60.1055430  69.8761940  82.8152320  57.2720880
  69.4143470  82.0439560  57.6008050  70.6887490  82.8418390  57.7773330
  59.8521600  82.7552030  59.5655530  60.1549640  81.8649770  59.3865750
  60.5965190  83.3122250  59.3377780  58.2812290  73.6813830  53.1539900
  57.3928990  74.0229800  53.0519780  58.5653480  73.4814150  52.2620730
  56.2445300  76.2819480  59.0379600  56.8161410  75.5141680  59.0383240
  56.2446840  76.5808240  58.1286210  66.1025250  85.1010330  56.8924870
  65.4836690  85.5567830  56.3219310  66.9577030  85.2561790  56.4914570
  65.2963500  81.0849320  58.4991910  65.2271780  80.1439260  58.3381040
  66.0583360  81.1750730  59.0714480  57.4870170  71.6903840  60.8248530
  57.3073010  70.7929590  61.1051290  57.0850250  72.2375710  61.4995480
  66.3268670  73.8919700  58.7260840  66.7033490  73.0191580  58.6134510
  66.2288180  74.2278400  57.8351280  60.4573680  72.2645330  54.1878280
  60.5640430  73.1649060  54.4947040  59.5466040  72.2163300  53.8972930
  70.1092790  71.3870140  55.6589180  70.9302410  70.8966710  55.7014660
  70.1426870  71.9767800  56.4121020  58.1056840  74.1864340  59.4330870
  58.7866950  74.4502710  60.0518270  57.7904890  73.3465210  59.7668880
  62.2981410  75.2331700  58.5203460  62.8059630  75.7312670  59.1608480
  62.8294650  74.4566900  58.3442820  74.3992340  73.4036890  62.2232810
  73.6944510  73.7918600  61.7047920  74.6650260  74.0987180  62.8253740
  60.5817510  69.8730260  62.7866880  60.5835950  70.3902650  61.9812780
  59.7521820  69.3960440  62.7636810  66.9688600  79.9849570  54.2856780
  66.3505870  80.4499020  53.7219500  67.4811850  80.6777050  54.7026290
  61.8320360  79.5125440  60.9640380  61.4989740  80.1394360  61.6061450
  62.0087040  80.0387320  60.1842050  70.3454270  73.3270520  58.4316720
  69.6409840  73.6155410  59.0119830  70.7066430  74.1370630  58.0716280
  60.2632840  71.5840220  60.7937330  60.6049650  72.4282270  60.4991200
  59.3248650  71.7323960  60.9102670  61.0439460  81.4806240  62.7789560
  61.6613460  82.1557320  62.4974010  60.1832580  81.8894220  62.6877060
  56.3371800  80.6706100  51.6596410  55.9599780  81.1593200  50.9281310
  56.5944870  81.3431380  52.2902940  71.9617050  82.9445650  60.6944200
  71.2780570  83.6144760  60.6860870  72.5011340  83.1426300  59.9289060
  73.4141190  72.7725310  58.8225930  72.4666100  72.8064290  58.9541360
  73.7391180  73.5864260  59.2075290  63.9460730  69.0722490  57.1181920
  64.2535710  68.5169380  56.4017420  63.0161430  69.2066950  56.9354910
  69.4975790  84.7889780  59.4089380  69.5102950  84.3852070  58.5411640
  68.9451010  85.5637070  59.3050810  70.7921210  81.5106000  54.4979550
  70.6817540  80.5680330  54.6228970  70.7889460  81.8721640  55.3842310
  68.8961230  79.6919620  60.7371990  69.3130020  79.4779730  59.9025450
  69.6201050  79.9492410  61.3080610  66.3341490  77.1371320  53.8542040
  65.4070770  77.0708700  54.0830510  66.4866310  78.0751450  53.7397280
  66.3210570  73.4088320  50.8509200  65.3814240  73.5702280  50.9361660
  66.6393830  74.1274000  50.3045190  72.8423330  78.0906840  60.8288230
  72.0141960  78.1599930  60.3538360  73.4373810  78.6761150  60.3604060
  70.3638780  78.6991620  54.3577290  69.7451200  78.3611170  53.7103590
  70.3463230  78.0551380  55.0656480  69.8065340  74.8776160  61.7743100
  69.3936520  75.7029870  62.0283090  69.0741290  74.2921200  61.5819460
  61.9398130  77.6636060  56.6361770  61.5355130  76.9513310  56.1407670
  62.0261250  77.3189300  57.5249810  62.4079830  81.3503620  58.8000980
  62.1108120  80.7449090  58.1208760  63.3579650  81.3880930  58.6890340
  60.6526750  74.4379270  60.4160810  61.2041340  74.5474610  59.6414060
  61.1670260  74.8116870  61.1316040  70.4965440  84.9235490  62.4624080
  70.0196000  85.7307680  62.2696690  69.8127230  84.2713820  62.6150290
  61.4998260  81.0885310  65.4508780  60.6026790  81.3125280  65.6982180
  61.5251130  81.2120250  64.5020180  68.5403480  77.9378430  51.3650040
  68.9796760  77.1000860  51.2187860  69.2531900  78.5707830  51.4514180
  60.3269480  77.9598630  64.0266150  60.1877250  78.8321430  64.3953550
  59.4450840  77.6171440  63.8814090  66.6498860  82.8774500  55.3331280
  67.0894770  83.6198830  54.9186670  66.5885750  83.1201070  56.2570240
  62.1249830  83.9020330  66.2351300  62.0965260  84.3063280  65.3679730
  61.9614800  82.9730690  66.0722900  72.1220620  69.1921240  49.6791080
  71.8093280  69.2848070  50.5790150  72.8833090  69.7702270  49.6288510
  58.6402760  76.5581040  54.1368420  58.5200360  77.2843130  53.5249690
  58.3303650  75.7883950  53.6596330  74.0764650  84.6847430  67.5315470
  74.5524370  85.1630320  68.2104550  74.6971810  84.6164920  66.8060970
  56.2788130  79.7296180  59.9437060  56.3568550  79.8644950  58.9992780
  56.8929810  79.0212070  60.1365180  57.5235760  81.4296370  56.3543240
  57.1163840  81.5710960  55.4996840  58.4148770  81.1456530  56.1514450
  73.4797900  81.8760280  64.6915480  73.6060960  81.6372160  63.7732660
  73.5219280  81.0444820  65.1637560  67.3414640  85.5788280  63.2610290
  67.8559310  85.4896290  64.0632720  66.4983720  85.9247980  63.5538200
  69.3169040  85.8643620  52.6894290  69.1570180  85.5746560  53.5876120
  69.1515750  85.0883750  52.1539520  61.7957420  85.6442150  54.4665910
  61.6199900  84.7277690  54.2533710  60.9413160  86.0029440  54.7063710
  69.0195170  83.3731180  51.2492290  68.3260330  83.3708470  50.5894570
  69.7618030  82.9490500  50.8186460  68.5845100  84.9993890  55.3240780
  69.0402050  84.2183270  55.6379400  68.9237620  85.7100710  55.8681960
  73.3321910  73.9292740  65.6565220  72.7166180  74.4372410  65.1280680
  73.0118330  73.0291070  65.5991160  56.3347650  80.7710350  62.4831520
  56.4978690  80.3015710  61.6650890  56.8000100  80.2633910  63.1480360
  61.1066420  69.9016110  57.5192090  60.6634570  70.6825650  57.1876610
  61.6651410  70.2246000  58.2263030  65.3936230  72.7684630  63.1227410
  64.9315600  72.9767650  63.9347350  64.9914340  71.9543980  62.8198080
  70.3940740  73.9893580  64.2524070  69.5434330  73.6899330  64.5733140
  70.2342530  74.2335590  63.3407890  67.4890450  75.4895330  66.3522860
  67.8143860  74.6559080  66.0125090  68.2770780  76.0123850  66.5001190
  64.2225240  69.5226810  52.3997920  63.5979420  69.5186680  53.1251230
  64.1355360  68.6557770  52.0033890  63.1442320  70.4463440  59.3781690
  63.4414650  71.3526270  59.2973710  63.6927880  69.9582220  58.7641260
  60.8980640  75.0249680  55.2473340  60.6721560  74.8086850  56.1519960
  60.1173170  75.4578140  54.9019310  68.1278400  75.0313050  53.8463990
  67.5287290  75.7548850  53.6627610  68.6758010  74.9689830  53.0640440
  63.3379850  75.9235260  65.9133610  63.2423450  74.9829990  65.7634010
  64.1811830  76.1450330  65.5181680  66.7343270  73.6676590  55.8767270
  67.1272840  73.9848790  55.0635960  67.0960120  72.7888470  55.9911790
  58.4690390  72.3348930  64.0667390  58.0753780  73.1824140  64.2740170
  57.7808790  71.6975300  64.2576030  65.0435440  72.4183900  67.1364130
  64.3533760  72.2256100  67.7710220  65.7867740  72.7018540  67.6688430
  55.7707440  70.2577390  58.0997470  55.4820490  70.8280250  58.8122450
  56.5153200  69.7781840  58.4628700  55.9577670  74.1997510  49.3100190
  55.8752340  75.1428270  49.4515180  55.6060730  74.0572420  48.4312540
  67.3198410  76.2582340  59.9718050  66.5879530  76.7669150  60.3208150
  66.9222750  75.4412320  59.6706830  63.7575800  72.9336540  58.3770540
  63.7611860  72.4926490  57.5275080  64.6526920  73.2553870  58.4842360
  59.6078180  72.8163030  57.3364750  59.2678230  73.2938260  58.0931800
  58.8455500  72.3628150  56.9765850  63.8195950  73.9348620  51.3677300
  63.9408770  73.8935100  52.3163120  63.4344460  74.7972770  51.2124030
  67.7824320  71.7116020  59.3840990  67.7997060  72.1624670  60.2282840
  67.5339900  70.8121660  59.5974430  62.8317450  76.2449760  50.7660600
  62.2634350  75.7968010  50.1396510  63.5406450  76.6042540  50.2325750
  71.2095070  69.1248200  65.2227370  71.5340840  68.3937860  65.7485350
  71.2451580  68.8061840  64.3208360  57.9086630  80.1461780  64.6427330
  57.5241420  79.5055450  65.2410290  58.2198820  80.8497900  65.2122060
  64.0583770  76.9938320  60.1235950  64.4253900  76.5196890  60.8697290
  63.8688830  77.8679890  60.4644290  56.9224260  71.7382010  56.2529420
  56.6371180  71.3737680  57.0908040  56.8603120  71.0062470  55.6392560
  61.8483140  76.0346960  62.4420160  61.5440210  76.9138940  62.6670520
  62.8029600  76.0946750  62.4777600  60.3764930  80.2407950  53.0387010
  59.6027190  79.7005570  52.8785730  61.1059560  79.7214560  52.7004770
  71.1352910  79.2373310  58.8313400  71.8552030  79.7328600  58.4409510
  70.9334730  78.5591200  58.1867270  66.5962850  70.6311270  52.9742790
  65.7827460  70.1324440  52.8988100  66.4024800  71.4709520  52.5579140
  66.5171710  79.3082370  64.7182400  66.4509020  78.3878040  64.4639990
  65.8876850  79.4057810  65.4327040  69.3111240  75.0030920  51.2704950
  70.1990860  75.3148150  51.0956290  69.2816330  74.1303170  50.8785530
  60.4202330  79.9088330  56.6765820  60.9381000  79.1056590  56.6222710
  59.9686350  79.8467470  57.5182650  65.3071830  81.1754610  51.9493120
  65.6487530  81.9196840  51.4536440  64.4784540  81.4885730  52.3117950
  57.9046870  76.8749700  63.5891520  57.5461810  77.5403550  64.1764860
  57.6101430  76.0433250  63.9604140  61.1059990  77.3333940  66.4731070
  60.8060130  77.4791120  65.5758890  61.8771230  76.7739230  66.3804460
  66.4488440  82.1302940  64.4686200  66.4632980  81.1983900  64.2505110
  65.7413540  82.2162700  65.1075970  71.5825510  76.3142760  50.7384810
  71.4989230  76.7456980  49.8881250  72.3019700  76.7741110  51.1711630
  72.6599650  78.7710280  63.8154780  71.9347840  79.3639060  63.6184170
  73.1875110  78.7633820  63.0168150  72.6112760  83.1685020  53.4666940
  71.9688920  82.5140640  53.7410660  72.2243420  83.5740110  52.6907610
  68.1899240  80.4970450  57.3138630  68.5423060  79.8998580  56.6540000
  67.3061570  80.1714680  57.4846880  64.2762520  81.2568140  54.7209040
  64.9633650  81.8037350  55.1016630  63.4894940  81.8008870  54.7558650
  56.4154920  76.8740960  50.2126120  57.2849770  77.1565760  50.4962040
  55.9245240  77.6876830  50.0974930  63.5789730  78.2614170  54.3334400
  64.0352510  79.0719420  54.5594590  63.2277940  77.9437310  55.1652890
  65.8822340  83.7720510  61.5626700  66.5264560  83.9779890  62.2400120
  66.2451780  83.0108910  61.1097550  59.4801510  68.6051820  54.8056920
  59.3516140  68.5969720  55.7541840  58.6563530  68.9434910  54.4547930
  67.1554420  81.7752860  60.2804150  67.7976650  81.0746020  60.3936320
  67.6803770  82.5551300  60.1001040  71.0010140  82.0601480  50.0043290
  70.7747720  81.3431920  50.5967930  70.6106340  81.8113920  49.1665040
  68.9292040  82.5747760  63.4840210  69.2648280  83.1614450  64.1618130
  68.0092380  82.4440470  63.7138000  56.7826170  86.0868340  50.7787750
  57.1423810  86.6857680  50.1245020  56.6418510  86.6328230  51.5522780
  56.4795440  70.3642940  64.2663620  55.7653960  70.5639860  64.8716230
  56.8990480  69.5882510  64.6378420  70.5826390  79.9773420  51.6657450
  70.2948090  80.4386110  52.4535330  71.3778560  79.5171190  51.9341670
  56.7668030  84.3523200  65.2530150  56.8759150  83.4117940  65.1125540
  56.1148590  84.6177950  64.6043880  64.7580620  82.6239090  66.6528270
  64.4377490  81.9048330  67.1973960  64.0838980  83.2994160  66.7264330
  62.7994790  83.4699540  51.5961420  62.7904890  84.2029230  50.9805930
  61.8793150  83.2231120  51.6888380  58.4001430  78.6914430  52.3408180
  57.7929380  79.4313330  52.3503480  58.8750780  78.7813790  51.5146380
  67.9734220  72.8565250  62.0165070  68.3415040  72.0360460  62.3444640
  67.1132420  72.9167140  62.4320720  71.3396250  71.8122190  52.8252630
  70.7109410  71.9167860  52.1110860  70.8448170  72.0318970  53.6146510
  65.7854390  83.5327780  50.2586610  65.8866370  83.3291770  49.3288590
  64.8856130  83.2786060  50.4634390  63.3080280  74.0908140  54.2410510
  62.5996430  74.5594480  54.6824120  63.5924760  73.4330150  54.8755700
  64.9336210  75.5104840  62.2403040  65.4321460  75.9850660  62.9054890
  65.0759160  74.5868360  62.4473070  67.3395710  70.8158800  55.6806300
  67.2163490  70.8344930  54.7315810  68.2880270  70.8637740  55.8004700
  64.4272500  86.0514100  54.9534280  64.6814000  86.0135490  54.0313650
  63.4784980  85.9247430  54.9462530  61.5115300  72.3993220  51.6161220
  62.3605830  72.8363370  51.5501410  61.1446570  72.7113480  52.4433280
  72.1403070  71.7272800  63.0831430  71.6376670  72.4678200  63.4225240
  72.9559730  72.1156800  62.7668220  70.4325080  76.9705980  56.5292790
  69.4915220  76.9856210  56.7040480  70.7469150  76.1841940  56.9753090
  60.4106720  78.6525580  50.0896750  61.1769990  78.5406940  50.6522180
  60.4881410  77.9563550  49.4373520  59.1053480  76.0850650  50.7729640
  59.1857070  75.1378160  50.8847040  59.9973230  76.4157530  50.8790300
  72.4350660  84.1414830  58.2047050  72.5598080  84.9646000  58.6770860
  73.3016220  83.9305560  57.8571200  59.9068190  86.2346040  57.8764180
  60.6430670  85.6861500  58.1472750  60.2909110  87.1002050  57.7370170
  56.7913670  82.3019610  53.7505690  55.8653450  82.5440750  53.7411100
  57.2570100  83.1293870  53.6290440  58.9126470  85.4192110  67.0649760
  59.7139200  85.7404160  67.4785160  58.3978290  85.0587690  67.7869670
  63.0170500  85.4076350  49.6989750  63.8099110  85.6965180  49.2471540
  62.4974850  84.9768520  49.0202230  67.7491100  81.5271980  67.0125170
  67.1429260  81.5503580  66.2720920  67.4445210  80.7955020  67.5492420
  69.1791470  85.2552270  65.6234580  70.1313220  85.1710290  65.5734820
  69.0319690  85.9193980  66.2968370  72.0700670  84.6346480  51.1226490
  71.7842180  84.2211620  50.3080670  71.8720220  85.5634190  51.0027010
  56.6324280  77.9065570  66.0085810  57.1363300  77.3272850  66.5802040
  55.8931700  78.1905800  66.5462180  63.5347900  80.6279760  49.5632100
  63.4298540  80.0132110  50.2893480  63.3672120  80.1045650  48.7795110
  63.6862220  79.3136560  65.5421330  62.9207890  79.8821560  65.4576000
  63.8678180  79.0212770  64.6489560  66.7750630  79.6899790  50.1674090
  66.2260730  80.1369090  50.8116830  67.3969890  79.1849040  50.6911760
  70.8285570  81.0441890  66.0996350  71.5695040  81.3817650  65.5963810
  70.0658250  81.2133950  65.5466120  58.6647360  76.0495160  66.9035880
  58.7052700  75.7509030  67.8121110  59.5192860  76.4502770  66.7443400
  62.4425750  78.6490710  52.0639390  62.8642170  78.4830580  52.9070780
  62.5676590  77.8390940  51.5694530  60.6053170  74.6287260  64.8710370
  60.0749630  74.1378210  64.2433710  61.2741240  75.0571460  64.3368300
  64.9553390  77.6728320  49.3116490  65.4759050  76.9577340  48.9457640
  65.6021790  78.3114190  49.6117000  69.5031230  79.0956720  64.6351560
  69.9172250  79.2501800  65.4841980  68.5682230  79.2211940  64.7977340
  69.9753400  76.4352880  66.6390710  70.5574170  75.6805200  66.5511190
  70.1515170  76.9660320  65.8622190  61.0925470  71.5949630  64.9507660
  60.9982340  70.9770380  64.2258530  60.5122860  72.3215920  64.7237570
  63.8586910  70.1522870  61.9835050  63.4104210  70.1747130  61.1380600
  63.2252110  69.7541890  62.5805350  64.2646460  79.0477200  62.6047490
  64.6834570  79.8909930  62.4323730  63.3455090  79.1849240  62.3754270
  66.6010360  76.7793380  63.9885330  66.7206570  76.1834520  64.7280170
  67.4604360  76.8163070  63.5686630  68.9398260  77.3330570  62.5647840
  68.4133480  77.8573190  61.9612980  69.2829600  77.9657960  63.1957570
  61.3384650  74.7223940  49.0097550  61.1373710  73.8591300  49.3710890
  61.1676700  74.6357300  48.0719150  62.1153880  85.3530210  63.7205220
  61.5774970  86.0776270  63.4013920  62.3687840  84.8760550  62.9302560
  63.3679130  73.3214730  65.2461150  63.9578820  73.0130580  65.9338970
  62.5499370  72.8494480  65.4021050  68.1872560  72.9380540  65.4794170
  67.4988080  72.2762080  65.4144160  68.9078580  72.4918810  65.9242630
  68.8172960  69.5332170  51.5384430  69.0975250  68.6900070  51.8943850
  68.0438690  69.7655280  52.0523180  60.1367450  71.8224560  48.9975430
  60.4393350  71.8291990  48.0894580  60.8762040  71.4722420  49.4943090
  64.9716090  86.5881420  63.9791870  64.8974790  87.4916560  64.2864240
  64.0694930  86.2693320  63.9513940  63.3552380  70.7659180  49.9831630
  63.0074380  70.0883170  49.4034080  63.5565150  70.3048690  50.7975020
  65.5201420  85.7539930  51.6018230  66.4152210  86.0924900  51.6236990
  65.5519050  85.0319340  50.9742510  59.1597580  81.1266980  49.8305230
  59.5972450  81.6696650  50.4862810  59.6445310  80.3013930  49.8401570
  56.3743380  83.9156010  57.2825490  56.7046390  83.0477070  57.0504130
  56.8034380  84.1214530  58.1130450  60.9705300  82.2465020  54.9427460
  60.6700840  82.1229990  55.8431370  60.8642790  81.3873610  54.5343190
  56.8633590  84.7826600  60.0207120  56.4264580  84.9627400  60.8531270
  57.4311270  85.5401220  59.8788840  72.4995770  84.2843600  64.3084430
  71.8997760  84.3436160  63.5648350  72.6289670  83.3448580  64.4381280
  73.7397220  82.0261420  49.6454140  72.9090180  82.0938070  50.1161370
  73.9169050  82.9165540  49.3421000  73.1953680  78.7708900  52.1488340
  73.9572590  79.3405550  52.2548030  73.2108050  78.2036100  52.9196650
  56.6958020  77.2946830  56.3796000  56.0406860  77.0258470  55.7355700
  57.5335970  77.1851310  55.9297980  74.2013650  79.6259000  56.9930270
  74.5722480  78.8426320  56.5866240  74.8415580  80.3148100  56.8147570
  71.1847410  81.0095580  62.4060590  70.3707250  81.4392740  62.6686380
  71.5921610  81.6213990  61.7929640  73.2472850  79.0643270  49.3060860
  73.5221690  79.9722150  49.1780080  73.0583590  79.0005800  50.2422850
  69.6448460  72.0888120  50.6014490  70.0633340  71.9019100  49.7611150
  69.3384520  71.2367170  50.9117420  73.1438190  77.0012260  54.2990290
  72.7681790  76.2340190  53.8671580  72.4141310  77.3834960  54.7865220
  57.7333950  77.6799400  60.9199340  58.1006990  77.5926800  61.7995360
  57.1644770  76.9165950  60.8206200  72.5337810  76.1483780  63.9329810
  72.3023900  75.9196530  63.0327760  72.7942360  77.0683330  63.8874700
  57.2849950  74.5908490  64.8257760  56.3906000  74.5575250  65.1651470
  57.8247500  74.7895280  65.5909010  70.9725880  71.3740210  66.7109510
  71.8496060  71.3823610  67.0943510  70.9846720  70.6371050  66.1001860
  55.9096100  74.5045760  52.3221330  55.0060180  74.7675960  52.1472990
  56.3936720  74.7756930  51.5421290  72.4189150  75.2269750  57.5997530
  72.9426630  74.7332400  56.9687700  73.0048570  75.3620110  58.3445100
  72.5978870  75.3109620  61.1217080  71.6481580  75.2773160  61.2362070
  72.7791880  76.2209730  60.8866850  58.4523310  73.5611300  50.2315710
  59.1615010  73.1394520  49.7462990  57.7363250  73.6286530  49.5999060
  58.0997470  69.6150630  49.2718360  58.8225600  70.1559570  49.5899580
  58.3721990  69.3414050  48.3959900  71.9089120  74.4843100  53.5389940
  72.4048240  74.2513970  54.3238820  71.7105190  73.6454940  53.1227580
  57.7889660  68.8656820  59.1740980  58.4365850  68.3154200  58.7336140
  58.2091500  69.1199970  59.9956790  73.3376280  73.1204050  56.0727620
  73.2275560  72.9660090  57.0109890  74.0983870  72.5924990  55.8303030
  71.6842000  69.0598180  62.5310620  72.3214220  69.6732320  62.8969810
  71.8316890  69.0958840  61.5859850  74.2266550  70.9511970  49.3133760
  75.1515860  70.8193150  49.1052050  74.2042340  71.0304790  50.2670210
  74.3005040  71.7222630  51.9390470  73.5056540  71.6567750  52.4683380
  74.5048320  72.6573270  51.9275820  71.2423460  85.7614180  55.9328860
  71.8382530  85.4398750  55.2563280  71.5001610  85.2886000  56.7242130
  57.5421660  69.0212490  61.9166300  57.1936480  69.4776310  62.6824480
  57.2109360  68.1269620  61.9988730  59.1486030  82.1932090  66.0819490
  59.1055660  81.8225000  66.9633950  59.2797040  83.1309660  66.2221310
  62.8492060  83.7491680  61.6829210  62.6083420  84.0166240  60.7959730
  63.7894700  83.9197410  61.7380070  65.0546480  70.2124370  65.4385720
  64.9935370  70.8046200  66.1881130  65.9946860  70.1050330  65.2935980
  67.6921040  69.8694430  65.0778010  68.3061450  70.1873720  64.4159090
  68.2370600  69.3843020  65.6973870  74.1096220  85.7686060  62.4839850
  73.6154500  86.1654930  61.7666980  73.5009510  85.1435270  62.8777130
  58.9874060  85.1394340  63.2017270  58.3934380  85.0079040  63.9407310
  58.9797900  84.3032480  62.7359370  68.4329080  68.4326570  61.4047300
  67.5588920  68.7661680  61.2020230  68.3239830  67.9599750  62.2299170
  69.3401060  70.6397440  62.7889020  69.0114420  69.8249200  62.4090750
  70.2883360  70.5967250  62.6654710  71.7935670  86.4109480  59.7626590
  71.3338640  87.1625290  59.3884610  71.1648130  85.6915950  59.7041390
  58.6186290  82.5052720  62.1525310  57.8920350  81.8858010  62.0851260
  58.6795440  82.8993330  61.2823390  62.2231390  84.7197720  58.9374720
  62.7396410  84.1085080  58.4122980  62.8728770  85.2226500  59.4285730
  64.9626890  85.6106210  59.7643700  65.2504700  85.3560510  58.8876710
  65.4750110  85.0583570  60.3549270  66.1803900  69.3496410  60.3440210
  65.3975690  69.8241910  60.6236970  65.8866830  68.4451240  60.2353390
  70.7324970  70.0519510  58.3889300  71.1733060  69.9964610  57.5410900
  70.4632560  70.9677520  58.4599480  72.5963540  69.6834750  56.3998120
  72.5351940  68.7395970  56.2529140  73.3755570  69.7914840  56.9451580
  56.9016290  85.8227110  55.3622070  56.7338330  85.1897790  56.0603960
  56.0350800  86.0286510  55.0116260  57.5244310  69.6543890  52.8653930
  58.2823670  69.7672770  52.2917960  57.0621480  70.4913090  52.8197360
  64.0658120  71.7683160  55.8556240  63.2532630  71.3940050  55.5152120
  64.5699760  71.0128240  56.1577430  68.5683100  68.4325610  57.0939310
  69.1712470  69.0045820  57.5687830  67.8276090  68.9965050  56.8713210
  71.7117700  68.8347170  52.3679590  71.9068330  69.7330620  52.6347020
  70.9247570  68.6034250  52.8612540  58.5078990  84.5160340  52.8072210
  57.9826610  84.8968370  52.1034170  58.4323570  85.1411110  53.5281920
  59.8969460  70.1807940  51.4055900  60.4262220  69.3937740  51.2763850
  60.5297780  70.8599130  51.6391430  62.0907300  69.9183080  54.4601290
  61.4610040  69.2170390  54.6271420  61.5512440  70.6787210  54.2434450
  65.0299250  86.5322310  67.1311900  65.9566560  86.2966580  67.1747860
  65.0149680  87.3594310  66.6497930  73.2644310  86.0747880  54.1286150
  73.4396500  85.3885620  53.4847070  72.5665880  86.5994930  53.7362820
  62.2162860  69.1967060  66.8953780  61.9347130  69.7000660  66.1314600
  62.5982560  68.3988810  66.5295910  61.1071960  86.4642720  51.6821460
  61.8390780  86.1802000  51.1345350  61.3665630  86.2256000  52.5720840
  60.2686750  82.5807450  51.6867790  59.6395630  83.0492550  52.2353620
  60.3834580  81.7356670  52.1213980  68.8178320  68.6120640  67.4734250
  68.7043770  68.9315250  68.3685770  69.6348060  69.0133150  67.1771530
  71.5976810  85.7592170  66.9552940  72.3902130  85.2641400  66.7478900
  71.8909960  86.4382310  67.5628550  67.7236470  76.6313110  37.8368990
  67.6430520  75.7167720  37.5660700  67.3100890  77.1280180  37.1308700
  65.8554510  78.4092130  39.7178260  65.0796610  77.9292570  40.0076830
  66.5067440  77.7297780  39.5434420  59.8720340  78.7211940  40.5954020
  59.0405220  78.4660650  40.9950530  60.4801320  78.7922710  41.3311940
  69.8761940  82.8152320  38.4977390  69.4143470  82.0439560  38.8264560
  70.6887490  82.8418390  39.0029840  59.8521600  82.7552030  40.7912040
  60.1549640  81.8649770  40.6122260  60.5965190  83.3122250  40.5634290
  58.2812290  73.6813830  34.3796410  57.3928990  74.0229800  34.2776290
  58.5653480  73.4814150  33.4877240  56.2445300  76.2819480  40.2636110
  56.8161410  75.5141680  40.2639750  56.2446840  76.5808240  39.3542720
  66.1025250  85.1010330  38.1181380  65.4836690  85.5567830  37.5475820
  66.9577030  85.2561790  37.7171080  65.2963500  81.0849320  39.7248420
  65.2271780  80.1439260  39.5637550  66.0583360  81.1750730  40.2970990
  57.4870170  71.6903840  42.0505040  57.3073010  70.7929590  42.3307800
  57.0850250  72.2375710  42.7251990  66.3268670  73.8919700  39.9517350
  66.7033490  73.0191580  39.8391020  66.2288180  74.2278400  39.0607790
  60.4573680  72.2645330  35.4134790  60.5640430  73.1649060  35.7203550
  59.5466040  72.2163300  35.1229440  70.1092790  71.3870140  36.8845690
  70.9302410  70.8966710  36.9271170  70.1426870  71.9767800  37.6377530
  58.1056840  74.1864340  40.6587380  58.7866950  74.4502710  41.2774780
  57.7904890  73.3465210  40.9925390  62.2981410  75.2331700  39.7459970
  62.8059630  75.7312670  40.3864990  62.8294650  74.4566900  39.5699330
  74.3992340  73.4036890  43.4489320  73.6944510  73.7918600  42.9304430
  74.6650260  74.0987180  44.0510250  60.5817510  69.8730260  44.0123390
  60.5835950  70.3902650  43.2069290  59.7521820  69.3960440  43.9893320
  66.9688600  79.9849570  35.5113290  66.3505870  80.4499020  34.9476010
  67.4811850  80.6777050  35.9282800  61.8320360  79.5125440  42.1896890
  61.4989740  80.1394360  42.8317960  62.0087040  80.0387320  41.4098560
  70.3454270  73.3270520  39.6573230  69.6409840  73.6155410  40.2376340
  70.7066430  74.1370630  39.2972790  60.2632840  71.5840220  42.0193840
  60.6049650  72.4282270  41.7247710  59.3248650  71.7323960  42.1359180
  61.0439460  81.4806240  44.0046070  61.6613460  82.1557320  43.7230520
  60.1832580  81.8894220  43.9133570  56.3371800  80.6706100  32.8852920
  55.9599780  81.1593200  32.1537820  56.5944870  81.3431380  33.5159450
  71.9617050  82.9445650  41.9200710  71.2780570  83.6144760  41.9117380
  72.5011340  83.1426300  41.1545570  73.4141190  72.7725310  40.0482440
  72.4666100  72.8064290  40.1797870  73.7391180  73.5864260  40.4331800
  63.9460730  69.0722490  38.3438430  64.2535710  68.5169380  37.6273930
  63.0161430  69.2066950  38.1611420  69.4975790  84.7889780  40.6345890
  69.5102950  84.3852070  39.7668150  68.9451010  85.5637070  40.5307320
  70.7921210  81.5106000  35.7236060  70.6817540  80.5680330  35.8485480
  70.7889460  81.8721640  36.6098820  68.8961230  79.6919620  41.9628500
  69.3130020  79.4779730  41.1281960  69.6201050  79.9492410  42.5337120
  66.3341490  77.1371320  35.0798550  65.4070770  77.0708700  35.3087020
  66.4866310  78.0751450  34.9653790  66.3210570  73.4088320  32.0765710
  65.3814240  73.5702280  32.1618170  66.6393830  74.1274000  31.5301700
  72.8423330  78.0906840  42.0544740  72.0141960  78.1599930  41.5794870
  73.4373810  78.6761150  41.5860570  70.3638780  78.6991620  35.5833800
  69.7451200  78.3611170  34.9360100  70.3463230  78.0551380  36.2912990
  69.8065340  74.8776160  42.9999610  69.3936520  75.7029870  43.2539600
  69.0741290  74.2921200  42.8075970  61.9398130  77.6636060  37.8618280
  61.5355130  76.9513310  37.3664180  62.0261250  77.3189300  38.7506320
  62.4079830  81.3503620  40.0257490  62.1108120  80.7449090  39.3465270
  63.3579650  81.3880930  39.9146850  60.6526750  74.4379270  41.6417320
  61.2041340  74.5474610  40.8670570  61.1670260  74.8116870  42.3572550
  70.4965440  84.9235490  43.6880590  70.0196000  85.7307680  43.4953200
  69.8127230  84.2713820  43.8406800  61.4998260  81.0885310  46.6765290
  60.6026790  81.3125280  46.9238690  61.5251130  81.2120250  45.7276690
  68.5403480  77.9378430  32.5906550  68.9796760  77.1000860  32.4444370
  69.2531900  78.5707830  32.6770690  60.3269480  77.9598630  45.2522660
  60.1877250  78.8321430  45.6210060  59.4450840  77.6171440  45.1070600
  66.6498860  82.8774500  36.5587790  67.0894770  83.6198830  36.1443180
  66.5885750  83.1201070  37.4826750  62.1249830  83.9020330  47.4607810
  62.0965260  84.3063280  46.5936240  61.9614800  82.9730690  47.2979410
  72.1220620  69.1921240  30.9047590  71.8093280  69.2848070  31.8046660
  72.8833090  69.7702270  30.8545020  58.6402760  76.5581040  35.3624930
  58.5200360  77.2843130  34.7506200  58.3303650  75.7883950  34.8852840
  74.0764650  84.6847430  48.7571980  74.5524370  85.1630320  49.4361060
  74.6971810  84.6164920  48.0317480  56.2788130  79.7296180  41.1693570
  56.3568550  79.8644950  40.2249290  56.8929810  79.0212070  41.3621690
  57.5235760  81.4296370  37.5799750  57.1163840  81.5710960  36.7253350
  58.4148770  81.1456530  37.3770960  73.4797900  81.8760280  45.9171990
  73.6060960  81.6372160  44.9989170  73.5219280  81.0444820  46.3894070
  67.3414640  85.5788280  44.4866800  67.8559310  85.4896290  45.2889230
  66.4983720  85.9247980  44.7794710  69.3169040  85.8643620  33.9150800
  69.1570180  85.5746560  34.8132630  69.1515750  85.0883750  33.3796030
  61.7957420  85.6442150  35.6922420  61.6199900  84.7277690  35.4790220
  60.9413160  86.0029440  35.9320220  69.0195170  83.3731180  32.4748800
  68.3260330  83.3708470  31.8151080  69.7618030  82.9490500  32.0442970
  68.5845100  84.9993890  36.5497290  69.0402050  84.2183270  36.8635910
  68.9237620  85.7100710  37.0938470  73.3321910  73.9292740  46.8821730
  72.7166180  74.4372410  46.3537190  73.0118330  73.0291070  46.8247670
  56.3347650  80.7710350  43.7088030  56.4978690  80.3015710  42.8907400
  56.8000100  80.2633910  44.3736870  61.1066420  69.9016110  38.7448600
  60.6634570  70.6825650  38.4133120  61.6651410  70.2246000  39.4519540
  65.3936230  72.7684630  44.3483920  64.9315600  72.9767650  45.1603860
  64.9914340  71.9543980  44.0454590  70.3940740  73.9893580  45.4780580
  69.5434330  73.6899330  45.7989650  70.2342530  74.2335590  44.5664400
  67.4890450  75.4895330  47.5779370  67.8143860  74.6559080  47.2381600
  68.2770780  76.0123850  47.7257700  64.2225240  69.5226810  33.6254430
  63.5979420  69.5186680  34.3507740  64.1355360  68.6557770  33.2290400
  63.1442320  70.4463440  40.6038200  63.4414650  71.3526270  40.5230220
  63.6927880  69.9582220  39.9897770  60.8980640  75.0249680  36.4729850
  60.6721560  74.8086850  37.3776470  60.1173170  75.4578140  36.1275820
  68.1278400  75.0313050  35.0720500  67.5287290  75.7548850  34.8884120
  68.6758010  74.9689830  34.2896950  63.3379850  75.9235260  47.1390120
  63.2423450  74.9829990  46.9890520  64.1811830  76.1450330  46.7438190
  66.7343270  73.6676590  37.1023780  67.1272840  73.9848790  36.2892470
  67.0960120  72.7888470  37.2168300  58.4690390  72.3348930  45.2923900
  58.0753780  73.1824140  45.4996680  57.7808790  71.6975300  45.4832540
  65.0435440  72.4183900  48.3620640  64.3533760  72.2256100  48.9966730
  65.7867740  72.7018540  48.8944940  55.7707440  70.2577390  39.3253980
  55.4820490  70.8280250  40.0378960  56.5153200  69.7781840  39.6885210
  55.9577670  74.1997510  30.5356700  55.8752340  75.1428270  30.6771690
  55.6060730  74.0572420  29.6569050  67.3198410  76.2582340  41.1974560
  66.5879530  76.7669150  41.5464660  66.9222750  75.4412320  40.8963340
  63.7575800  72.9336540  39.6027050  63.7611860  72.4926490  38.7531590
  64.6526920  73.2553870  39.7098870  59.6078180  72.8163030  38.5621260
  59.2678230  73.2938260  39.3188310  58.8455500  72.3628150  38.2022360
  63.8195950  73.9348620  32.5933810  63.9408770  73.8935100  33.5419630
  63.4344460  74.7972770  32.4380540  67.7824320  71.7116020  40.6097500
  67.7997060  72.1624670  41.4539350  67.5339900  70.8121660  40.8230940
  62.8317450  76.2449760  31.9917110  62.2634350  75.7968010  31.3653020
  63.5406450  76.6042540  31.4582260  71.2095070  69.1248200  46.4483880
  71.5340840  68.3937860  46.9741860  71.2451580  68.8061840  45.5464870
  57.9086630  80.1461780  45.8683840  57.5241420  79.5055450  46.4666800
  58.2198820  80.8497900  46.4378570  64.0583770  76.9938320  41.3492460
  64.4253900  76.5196890  42.0953800  63.8688830  77.8679890  41.6900800
  56.9224260  71.7382010  37.4785930  56.6371180  71.3737680  38.3164550
  56.8603120  71.0062470  36.8649070  61.8483140  76.0346960  43.6676670
  61.5440210  76.9138940  43.8927030  62.8029600  76.0946750  43.7034110
  60.3764930  80.2407950  34.2643520  59.6027190  79.7005570  34.1042240
  61.1059560  79.7214560  33.9261280  71.1352910  79.2373310  40.0569910
  71.8552030  79.7328600  39.6666020  70.9334730  78.5591200  39.4123780
  66.5962850  70.6311270  34.1999300  65.7827460  70.1324440  34.1244610
  66.4024800  71.4709520  33.7835650  66.5171710  79.3082370  45.9438910
  66.4509020  78.3878040  45.6896500  65.8876850  79.4057810  46.6583550
  69.3111240  75.0030920  32.4961460  70.1990860  75.3148150  32.3212800
  69.2816330  74.1303170  32.1042040  60.4202330  79.9088330  37.9022330
  60.9381000  79.1056590  37.8479220  59.9686350  79.8467470  38.7439160
  65.3071830  81.1754610  33.1749630  65.6487530  81.9196840  32.6792950
  64.4784540  81.4885730  33.5374460  57.9046870  76.8749700  44.8148030
  57.5461810  77.5403550  45.4021370  57.6101430  76.0433250  45.1860650
  61.1059990  77.3333940  47.6987580  60.8060130  77.4791120  46.8015400
  61.8771230  76.7739230  47.6060970  66.4488440  82.1302940  45.6942710
  66.4632980  81.1983900  45.4761620  65.7413540  82.2162700  46.3332480
  71.5825510  76.3142760  31.9641320  71.4989230  76.7456980  31.1137760
  72.3019700  76.7741110  32.3968140  72.6599650  78.7710280  45.0411290
  71.9347840  79.3639060  44.8440680  73.1875110  78.7633820  44.2424660
  72.6112760  83.1685020  34.6923450  71.9688920  82.5140640  34.9667170
  72.2243420  83.5740110  33.9164120  68.1899240  80.4970450  38.5395140
  68.5423060  79.8998580  37.8796510  67.3061570  80.1714680  38.7103390
  64.2762520  81.2568140  35.9465550  64.9633650  81.8037350  36.3273140
  63.4894940  81.8008870  35.9815160  56.4154920  76.8740960  31.4382630
  57.2849770  77.1565760  31.7218550  55.9245240  77.6876830  31.3231440
  63.5789730  78.2614170  35.5590910  64.0352510  79.0719420  35.7851100
  63.2277940  77.9437310  36.3909400  65.8822340  83.7720510  42.7883210
  66.5264560  83.9779890  43.4656630  66.2451780  83.0108910  42.3354060
  59.4801510  68.6051820  36.0313430  59.3516140  68.5969720  36.9798350
  58.6563530  68.9434910  35.6804440  67.1554420  81.7752860  41.5060660
  67.7976650  81.0746020  41.6192830  67.6803770  82.5551300  41.3257550
  71.0010140  82.0601480  31.2299800  70.7747720  81.3431920  31.8224440
  70.6106340  81.8113920  30.3921550  68.9292040  82.5747760  44.7096720
  69.2648280  83.1614450  45.3874640  68.0092380  82.4440470  44.9394510
  56.7826170  86.0868340  32.0044260  57.1423810  86.6857680  31.3501530
  56.6418510  86.6328230  32.7779290  56.4795440  70.3642940  45.4920130
  55.7653960  70.5639860  46.0972740  56.8990480  69.5882510  45.8634930
  70.5826390  79.9773420  32.8913960  70.2948090  80.4386110  33.6791840
  71.3778560  79.5171190  33.1598180  56.7668030  84.3523200  46.4786660
  56.8759150  83.4117940  46.3382050  56.1148590  84.6177950  45.8300390
  64.7580620  82.6239090  47.8784780  64.4377490  81.9048330  48.4230470
  64.0838980  83.2994160  47.9520840  62.7994790  83.4699540  32.8217930
  62.7904890  84.2029230  32.2062440  61.8793150  83.2231120  32.9144890
  58.4001430  78.6914430  33.5664690  57.7929380  79.4313330  33.5759990
  58.8750780  78.7813790  32.7402890  67.9734220  72.8565250  43.2421580
  68.3415040  72.0360460  43.5701150  67.1132420  72.9167140  43.6577230
  71.3396250  71.8122190  34.0509140  70.7109410  71.9167860  33.3367370
  70.8448170  72.0318970  34.8403020  65.7854390  83.5327780  31.4843120
  65.8866370  83.3291770  30.5545100  64.8856130  83.2786060  31.6890900
  63.3080280  74.0908140  35.4667020  62.5996430  74.5594480  35.9080630
  63.5924760  73.4330150  36.1012210  64.9336210  75.5104840  43.4659550
  65.4321460  75.9850660  44.1311400  65.0759160  74.5868360  43.6729580
  67.3395710  70.8158800  36.9062810  67.2163490  70.8344930  35.9572320
  68.2880270  70.8637740  37.0261210  64.4272500  86.0514100  36.1790790
  64.6814000  86.0135490  35.2570160  63.4784980  85.9247430  36.1719040
  61.5115300  72.3993220  32.8417730  62.3605830  72.8363370  32.7757920
  61.1446570  72.7113480  33.6689790  72.1403070  71.7272800  44.3087940
  71.6376670  72.4678200  44.6481750  72.9559730  72.1156800  43.9924730
  70.4325080  76.9705980  37.7549300  69.4915220  76.9856210  37.9296990
  70.7469150  76.1841940  38.2009600  60.4106720  78.6525580  31.3153260
  61.1769990  78.5406940  31.8778690  60.4881410  77.9563550  30.6630030
  59.1053480  76.0850650  31.9986150  59.1857070  75.1378160  32.1103550
  59.9973230  76.4157530  32.1046810  72.4350660  84.1414830  39.4303560
  72.5598080  84.9646000  39.9027370  73.3016220  83.9305560  39.0827710
  59.9068190  86.2346040  39.1020690  60.6430670  85.6861500  39.3729260
  60.2909110  87.1002050  38.9626680  56.7913670  82.3019610  34.9762200
  55.8653450  82.5440750  34.9667610  57.2570100  83.1293870  34.8546950
  58.9126470  85.4192110  48.2906270  59.7139200  85.7404160  48.7041670
  58.3978290  85.0587690  49.0126180  63.0170500  85.4076350  30.9246260
  63.8099110  85.6965180  30.4728050  62.4974850  84.9768520  30.2458740
  67.7491100  81.5271980  48.2381680  67.1429260  81.5503580  47.4977430
  67.4445210  80.7955020  48.7748930  69.1791470  85.2552270  46.8491090
  70.1313220  85.1710290  46.7991330  69.0319690  85.9193980  47.5224880
  72.0700670  84.6346480  32.3483000  71.7842180  84.2211620  31.5337180
  71.8720220  85.5634190  32.2283520  56.6324280  77.9065570  47.2342320
  57.1363300  77.3272850  47.8058550  55.8931700  78.1905800  47.7718690
  63.5347900  80.6279760  30.7888610  63.4298540  80.0132110  31.5149990
  63.3672120  80.1045650  30.0051620  63.6862220  79.3136560  46.7677840
  62.9207890  79.8821560  46.6832510  63.8678180  79.0212770  45.8746070
  66.7750630  79.6899790  31.3930600  66.2260730  80.1369090  32.0373340
  67.3969890  79.1849040  31.9168270  70.8285570  81.0441890  47.3252860
  71.5695040  81.3817650  46.8220320  70.0658250  81.2133950  46.7722630
  58.6647360  76.0495160  48.1292390  58.7052700  75.7509030  49.0377620
  59.5192860  76.4502770  47.9699910  62.4425750  78.6490710  33.2895900
  62.8642170  78.4830580  34.1327290  62.5676590  77.8390940  32.7951040
  60.6053170  74.6287260  46.0966880  60.0749630  74.1378210  45.4690220
  61.2741240  75.0571460  45.5624810  64.9553390  77.6728320  30.5373000
  65.4759050  76.9577340  30.1714150  65.6021790  78.3114190  30.8373510
  69.5031230  79.0956720  45.8608070  69.9172250  79.2501800  46.7098490
  68.5682230  79.2211940  46.0233850  69.9753400  76.4352880  47.8647220
  70.5574170  75.6805200  47.7767700  70.1515170  76.9660320  47.0878700
  61.0925470  71.5949630  46.1764170  60.9982340  70.9770380  45.4515040
  60.5122860  72.3215920  45.9494080  63.8586910  70.1522870  43.2091560
  63.4104210  70.1747130  42.3637110  63.2252110  69.7541890  43.8061860
  64.2646460  79.0477200  43.8304000  64.6834570  79.8909930  43.6580240
  63.3455090  79.1849240  43.6010780  66.6010360  76.7793380  45.2141840
  66.7206570  76.1834520  45.9536680  67.4604360  76.8163070  44.7943140
  68.9398260  77.3330570  43.7904350  68.4133480  77.8573190  43.1869490
  69.2829600  77.9657960  44.4214080  61.3384650  74.7223940  30.2354060
  61.1373710  73.8591300  30.5967400  61.1676700  74.6357300  29.2975660
  62.1153880  85.3530210  44.9461730  61.5774970  86.0776270  44.6270430
  62.3687840  84.8760550  44.1559070  63.3679130  73.3214730  46.4717660
  63.9578820  73.0130580  47.1595480  62.5499370  72.8494480  46.6277560
  68.1872560  72.9380540  46.7050680  67.4988080  72.2762080  46.6400670
  68.9078580  72.4918810  47.1499140  68.8172960  69.5332170  32.7640940
  69.0975250  68.6900070  33.1200360  68.0438690  69.7655280  33.2779690
  60.1367450  71.8224560  30.2231940  60.4393350  71.8291990  29.3151090
  60.8762040  71.4722420  30.7199600  64.9716090  86.5881420  45.2048380
  64.8974790  87.4916560  45.5120750  64.0694930  86.2693320  45.1770450
  63.3552380  70.7659180  31.2088140  63.0074380  70.0883170  30.6290590
  63.5565150  70.3048690  32.0231530  65.5201420  85.7539930  32.8274740
  66.4152210  86.0924900  32.8493500  65.5519050  85.0319340  32.1999020
  59.1597580  81.1266980  31.0561740  59.5972450  81.6696650  31.7119320
  59.6445310  80.3013930  31.0658080  56.3743380  83.9156010  38.5082000
  56.7046390  83.0477070  38.2760640  56.8034380  84.1214530  39.3386960
  60.9705300  82.2465020  36.1683970  60.6700840  82.1229990  37.0687880
  60.8642790  81.3873610  35.7599700  56.8633590  84.7826600  41.2463630
  56.4264580  84.9627400  42.0787780  57.4311270  85.5401220  41.1045350
  72.4995770  84.2843600  45.5340940  71.8997760  84.3436160  44.7904860
  72.6289670  83.3448580  45.6637790  73.7397220  82.0261420  30.8710650
  72.9090180  82.0938070  31.3417880  73.9169050  82.9165540  30.5677510
  73.1953680  78.7708900  33.3744850  73.9572590  79.3405550  33.4804540
  73.2108050  78.2036100  34.1453160  56.6958020  77.2946830  37.6052510
  56.0406860  77.0258470  36.9612210  57.5335970  77.1851310  37.1554490
  74.2013650  79.6259000  38.2186780  74.5722480  78.8426320  37.8122750
  74.8415580  80.3148100  38.0404080  71.1847410  81.0095580  43.6317100
  70.3707250  81.4392740  43.8942890  71.5921610  81.6213990  43.0186150
  73.2472850  79.0643270  30.5317370  73.5221690  79.9722150  30.4036590
  73.0583590  79.0005800  31.4679360  69.6448460  72.0888120  31.8271000
  70.0633340  71.9019100  30.9867660  69.3384520  71.2367170  32.1373930
  73.1438190  77.0012260  35.5246800  72.7681790  76.2340190  35.0928090
  72.4141310  77.3834960  36.0121730  57.7333950  77.6799400  42.1455850
  58.1006990  77.5926800  43.0251870  57.1644770  76.9165950  42.0462710
  72.5337810  76.1483780  45.1586320  72.3023900  75.9196530  44.2584270
  72.7942360  77.0683330  45.1131210  57.2849950  74.5908490  46.0514270
  56.3906000  74.5575250  46.3907980  57.8247500  74.7895280  46.8165520
  70.9725880  71.3740210  47.9366020  71.8496060  71.3823610  48.3200020
  70.9846720  70.6371050  47.3258370  55.9096100  74.5045760  33.5477840
  55.0060180  74.7675960  33.3729500  56.3936720  74.7756930  32.7677800
  72.4189150  75.2269750  38.8254040  72.9426630  74.7332400  38.1944210
  73.0048570  75.3620110  39.5701610  72.5978870  75.3109620  42.3473590
  71.6481580  75.2773160  42.4618580  72.7791880  76.2209730  42.1123360
  58.4523310  73.5611300  31.4572220  59.1615010  73.1394520  30.9719500
  57.7363250  73.6286530  30.8255570  58.0997470  69.6150630  30.4974870
  58.8225600  70.1559570  30.8156090  58.3721990  69.3414050  29.6216410
  71.9089120  74.4843100  34.7646450  72.4048240  74.2513970  35.5495330
  71.7105190  73.6454940  34.3484090  57.7889660  68.8656820  40.3997490
  58.4365850  68.3154200  39.9592650  58.2091500  69.1199970  41.2213300
  73.3376280  73.1204050  37.2984130  73.2275560  72.9660090  38.2366400
  74.0983870  72.5924990  37.0559540  71.6842000  69.0598180  43.7567130
  72.3214220  69.6732320  44.1226320  71.8316890  69.0958840  42.8116360
  74.2266550  70.9511970  30.5390270  75.1515860  70.8193150  30.3308560
  74.2042340  71.0304790  31.4926720  74.3005040  71.7222630  33.1646980
  73.5056540  71.6567750  33.6939890  74.5048320  72.6573270  33.1532330
  71.2423460  85.7614180  37.1585370  71.8382530  85.4398750  36.4819790
  71.5001610  85.2886000  37.9498640  57.5421660  69.0212490  43.1422810
  57.1936480  69.4776310  43.9080990  57.2109360  68.1269620  43.2245240
  59.1486030  82.1932090  47.3076000  59.1055660  81.8225000  48.1890460
  59.2797040  83.1309660  47.4477820  62.8492060  83.7491680  42.9085720
  62.6083420  84.0166240  42.0216240  63.7894700  83.9197410  42.9636580
  65.0546480  70.2124370  46.6642230  64.9935370  70.8046200  47.4137640
  65.9946860  70.1050330  46.5192490  67.6921040  69.8694430  46.3034520
  68.3061450  70.1873720  45.6415600  68.2370600  69.3843020  46.9230380
  74.1096220  85.7686060  43.7096360  73.6154500  86.1654930  42.9923490
  73.5009510  85.1435270  44.1033640  58.2142300  68.5488690  46.4173580
  58.7625290  68.3676740  45.6539690  58.2797610  67.7582800  46.9529890
  58.9874060  85.1394340  44.4273780  58.3934380  85.0079040  45.1663820
  58.9797900  84.3032480  43.9615880  68.4329080  68.4326570  42.6303810
  67.5588920  68.7661680  42.4276740  68.3239830  67.9599750  43.4555680
  69.3401060  70.6397440  44.0145530  69.0114420  69.8249200  43.6347260
  70.2883360  70.5967250  43.8911220  71.7935670  86.4109480  40.9883100
  71.3338640  87.1625290  40.6141120  71.1648130  85.6915950  40.9297900
  58.6186290  82.5052720  43.3781820  57.8920350  81.8858010  43.3107770
  58.6795440  82.8993330  42.5079900  62.2231390  84.7197720  40.1631230
  62.7396410  84.1085080  39.6379490  62.8728770  85.2226500  40.6542240
  64.9626890  85.6106210  40.9900210  65.2504700  85.3560510  40.1133220
  65.4750110  85.0583570  41.5805780  66.1803900  69.3496410  41.5696720
  65.3975690  69.8241910  41.8493480  65.8866830  68.4451240  41.4609900
  70.7324970  70.0519510  39.6145810  71.1733060  69.9964610  38.7667410
  70.4632560  70.9677520  39.6855990  72.5963540  69.6834750  37.6254630
  72.5351940  68.7395970  37.4785650  73.3755570  69.7914840  38.1708090
  56.9016290  85.8227110  36.5878580  56.7338330  85.1897790  37.2860470
  56.0350800  86.0286510  36.2372770  57.5244310  69.6543890  34.0910440
  58.2823670  69.7672770  33.5174470  57.0621480  70.4913090  34.0453870
  64.0658120  71.7683160  37.0812750  63.2532630  71.3940050  36.7408630
  64.5699760  71.0128240  37.3833940  68.5683100  68.4325610  38.3195820
  69.1712470  69.0045820  38.7944340  67.8276090  68.9965050  38.0969720
  71.7117700  68.8347170  33.5936100  71.9068330  69.7330620  33.8603530
  70.9247570  68.6034250  34.0869050  58.5078990  84.5160340  34.0328720
  57.9826610  84.8968370  33.3290680  58.4323570  85.1411110  34.7538430
  59.8969460  70.1807940  32.6312410  60.4262220  69.3937740  32.5020360
  60.5297780  70.8599130  32.8647940  62.0907300  69.9183080  35.6857800
  61.4610040  69.2170390  35.8527930  61.5512440  70.6787210  35.4690960
  65.0299250  86.5322310  48.3568410  65.9566560  86.2966580  48.4004370
  65.0149680  87.3594310  47.8754440  73.2644310  86.0747880  35.3542660
  73.4396500  85.3885620  34.7103580  72.5665880  86.5994930  34.9619330
  62.2162860  69.1967060  48.1210290  61.9347130  69.7000660  47.3571110
  62.5982560  68.3988810  47.7552420  61.1071960  86.4642720  32.9077970
  61.8390780  86.1802000  32.3601860  61.3665630  86.2256000  33.7977350
  60.2686750  82.5807450  32.9124300  59.6395630  83.0492550  33.4610130
  60.3834580  81.7356670  33.3470490  68.8178320  68.6120640  48.6990760
  68.7043770  68.9315250  49.5942280  69.6348060  69.0133150  48.4028040
  71.5976810  85.7592170  48.1809450  72.3902130  85.2641400  47.9735410
  71.8909960  86.4382310  48.7885060  67.7236470  76.6313110  19.0625500
  67.6430520  75.7167720  18.7917210  67.3100890  77.1280180  18.3565210
  65.8554510  78.4092130  20.9434770  65.0796610  77.9292570  21.2333340
  66.5067440  77.7297780  20.7690930  59.8720340  78.7211940  21.8210530
  59.0405220  78.4660650  22.2207040  60.4801320  78.7922710  22.5568450
  69.8761940  82.8152320  19.7233900  69.4143470  82.0439560  20.0521070
  70.6887490  82.8418390  20.2286350  59.8521600  82.7552030  22.0168550
  60.1549640  81.8649770  21.8378770  60.5965190  83.3122250  21.7890800
  58.2812290  73.6813830  15.6052920  57.3928990  74.0229800  15.5032800
  58.5653480  73.4814150  14.7133750  56.2445300  76.2819480  21.4892620
  56.8161410  75.5141680  21.4896260  56.2446840  76.5808240  20.5799230
  66.1025250  85.1010330  19.3437890  65.4836690  85.5567830  18.7732330
  66.9577030  85.2561790  18.9427590  65.2963500  81.0849320  20.9504930
  65.2271780  80.1439260  20.7894060  66.0583360  81.1750730  21.5227500
  57.4870170  71.6903840  23.2761550  57.3073010  70.7929590  23.5564310
  57.0850250  72.2375710  23.9508500  66.3268670  73.8919700  21.1773860
  66.7033490  73.0191580  21.0647530  66.2288180  74.2278400  20.2864300
  60.4573680  72.2645330  16.6391300  60.5640430  73.1649060  16.9460060
  59.5466040  72.2163300  16.3485950  70.1092790  71.3870140  18.1102200
  70.9302410  70.8966710  18.1527680  70.1426870  71.9767800  18.8634040
  58.1056840  74.1864340  21.8843890  58.7866950  74.4502710  22.5031290
  57.7904890  73.3465210  22.2181900  62.2981410  75.2331700  20.9716480
  62.8059630  75.7312670  21.6121500  62.8294650  74.4566900  20.7955840
  74.3992340  73.4036890  24.6745830  73.6944510  73.7918600  24.1560940
  74.6650260  74.0987180  25.2766760  60.5817510  69.8730260  25.2379900
  60.5835950  70.3902650  24.4325800  59.7521820  69.3960440  25.2149830
  66.9688600  79.9849570  16.7369800  66.3505870  80.4499020  16.1732520
  67.4811850  80.6777050  17.1539310  61.8320360  79.5125440  23.4153400
  61.4989740  80.1394360  24.0574470  62.0087040  80.0387320  22.6355070
  70.3454270  73.3270520  20.8829740  69.6409840  73.6155410  21.4632850
  70.7066430  74.1370630  20.5229300  60.2632840  71.5840220  23.2450350
  60.6049650  72.4282270  22.9504220  59.3248650  71.7323960  23.3615690
  61.0439460  81.4806240  25.2302580  61.6613460  82.1557320  24.9487030
  60.1832580  81.8894220  25.1390080  56.3371800  80.6706100  14.1109430
  55.9599780  81.1593200  13.3794330  56.5944870  81.3431380  14.7415960
  71.9617050  82.9445650  23.1457220  71.2780570  83.6144760  23.1373890
  72.5011340  83.1426300  22.3802080  73.4141190  72.7725310  21.2738950
  72.4666100  72.8064290  21.4054380  73.7391180  73.5864260  21.6588310
  63.9460730  69.0722490  19.5694940  64.2535710  68.5169380  18.8530440
  63.0161430  69.2066950  19.3867930  69.4975790  84.7889780  21.8602400
  69.5102950  84.3852070  20.9924660  68.9451010  85.5637070  21.7563830
  70.7921210  81.5106000  16.9492570  70.6817540  80.5680330  17.0741990
  70.7889460  81.8721640  17.8355330  68.8961230  79.6919620  23.1885010
  69.3130020  79.4779730  22.3538470  69.6201050  79.9492410  23.7593630
  66.3341490  77.1371320  16.3055060  65.4070770  77.0708700  16.5343530
  66.4866310  78.0751450  16.1910300  66.3210570  73.4088320  13.3022220
  65.3814240  73.5702280  13.3874680  66.6393830  74.1274000  12.7558210
  72.8423330  78.0906840  23.2801250  72.0141960  78.1599930  22.8051380
  73.4373810  78.6761150  22.8117080  70.3638780  78.6991620  16.8090310
  69.7451200  78.3611170  16.1616610  70.3463230  78.0551380  17.5169500
  69.8065340  74.8776160  24.2256120  69.3936520  75.7029870  24.4796110
  69.0741290  74.2921200  24.0332480  61.9398130  77.6636060  19.0874790
  61.5355130  76.9513310  18.5920690  62.0261250  77.3189300  19.9762830
  62.4079830  81.3503620  21.2514000  62.1108120  80.7449090  20.5721780
  63.3579650  81.3880930  21.1403360  60.6526750  74.4379270  22.8673830
  61.2041340  74.5474610  22.0927080  61.1670260  74.8116870  23.5829060
  70.4965440  84.9235490  24.9137100  70.0196000  85.7307680  24.7209710
  69.8127230  84.2713820  25.0663310  61.4998260  81.0885310  27.9021800
  60.6026790  81.3125280  28.1495200  61.5251130  81.2120250  26.9533200
  68.5403480  77.9378430  13.8163060  68.9796760  77.1000860  13.6700880
  69.2531900  78.5707830  13.9027200  60.3269480  77.9598630  26.4779170
  60.1877250  78.8321430  26.8466570  59.4450840  77.6171440  26.3327110
  66.6498860  82.8774500  17.7844300  67.0894770  83.6198830  17.3699690
  66.5885750  83.1201070  18.7083260  62.1249830  83.9020330  28.6864320
  62.0965260  84.3063280  27.8192750  61.9614800  82.9730690  28.5235920
  72.1220620  69.1921240  12.1304100  71.8093280  69.2848070  13.0303170
  72.8833090  69.7702270  12.0801530  58.6402760  76.5581040  16.5881440
  58.5200360  77.2843130  15.9762710  58.3303650  75.7883950  16.1109350
  74.0764650  84.6847430  29.9828490  74.5524370  85.1630320  30.6617570
  74.6971810  84.6164920  29.2573990  56.2788130  79.7296180  22.3950080
  56.3568550  79.8644950  21.4505800  56.8929810  79.0212070  22.5878200
  57.5235760  81.4296370  18.8056260  57.1163840  81.5710960  17.9509860
  58.4148770  81.1456530  18.6027470  73.4797900  81.8760280  27.1428500
  73.6060960  81.6372160  26.2245680  73.5219280  81.0444820  27.6150580
  67.3414640  85.5788280  25.7123310  67.8559310  85.4896290  26.5145740
  66.4983720  85.9247980  26.0051220  69.3169040  85.8643620  15.1407310
  69.1570180  85.5746560  16.0389140  69.1515750  85.0883750  14.6052540
  61.7957420  85.6442150  16.9178930  61.6199900  84.7277690  16.7046730
  60.9413160  86.0029440  17.1576730  69.0195170  83.3731180  13.7005310
  68.3260330  83.3708470  13.0407590  69.7618030  82.9490500  13.2699480
  68.5845100  84.9993890  17.7753800  69.0402050  84.2183270  18.0892420
  68.9237620  85.7100710  18.3194980  73.3321910  73.9292740  28.1078240
  72.7166180  74.4372410  27.5793700  73.0118330  73.0291070  28.0504180
  56.3347650  80.7710350  24.9344540  56.4978690  80.3015710  24.1163910
  56.8000100  80.2633910  25.5993380  61.1066420  69.9016110  19.9705110
  60.6634570  70.6825650  19.6389630  61.6651410  70.2246000  20.6776050
  65.3936230  72.7684630  25.5740430  64.9315600  72.9767650  26.3860370
  64.9914340  71.9543980  25.2711100  70.3940740  73.9893580  26.7037090
  69.5434330  73.6899330  27.0246160  70.2342530  74.2335590  25.7920910
  67.4890450  75.4895330  28.8035880  67.8143860  74.6559080  28.4638110
  68.2770780  76.0123850  28.9514210  64.2225240  69.5226810  14.8510940
  63.5979420  69.5186680  15.5764250  64.1355360  68.6557770  14.4546910
  63.1442320  70.4463440  21.8294710  63.4414650  71.3526270  21.7486730
  63.6927880  69.9582220  21.2154280  60.8980640  75.0249680  17.6986360
  60.6721560  74.8086850  18.6032980  60.1173170  75.4578140  17.3532330
  68.1278400  75.0313050  16.2977010  67.5287290  75.7548850  16.1140630
  68.6758010  74.9689830  15.5153460  63.3379850  75.9235260  28.3646630
  63.2423450  74.9829990  28.2147030  64.1811830  76.1450330  27.9694700
  66.7343270  73.6676590  18.3280290  67.1272840  73.9848790  17.5148980
  67.0960120  72.7888470  18.4424810  58.4690390  72.3348930  26.5180410
  58.0753780  73.1824140  26.7253190  57.7808790  71.6975300  26.7089050
  65.0435440  72.4183900  29.5877150  64.3533760  72.2256100  30.2223240
  65.7867740  72.7018540  30.1201450  55.7707440  70.2577390  20.5510490
  55.4820490  70.8280250  21.2635470  56.5153200  69.7781840  20.9141720
  55.9577670  74.1997510  11.7613210  55.8752340  75.1428270  11.9028200
  55.6060730  74.0572420  10.8825560  67.3198410  76.2582340  22.4231070
  66.5879530  76.7669150  22.7721170  66.9222750  75.4412320  22.1219850
  63.7575800  72.9336540  20.8283560  63.7611860  72.4926490  19.9788100
  64.6526920  73.2553870  20.9355380  59.6078180  72.8163030  19.7877770
  59.2678230  73.2938260  20.5444820  58.8455500  72.3628150  19.4278870
  63.8195950  73.9348620  13.8190320  63.9408770  73.8935100  14.7676140
  63.4344460  74.7972770  13.6637050  67.7824320  71.7116020  21.8354010
  67.7997060  72.1624670  22.6795860  67.5339900  70.8121660  22.0487450
  62.8317450  76.2449760  13.2173620  62.2634350  75.7968010  12.5909530
  63.5406450  76.6042540  12.6838770  71.2095070  69.1248200  27.6740390
  71.5340840  68.3937860  28.1998370  71.2451580  68.8061840  26.7721380
  57.9086630  80.1461780  27.0940350  57.5241420  79.5055450  27.6923310
  58.2198820  80.8497900  27.6635080  64.0583770  76.9938320  22.5748970
  64.4253900  76.5196890  23.3210310  63.8688830  77.8679890  22.9157310
  56.9224260  71.7382010  18.7042440  56.6371180  71.3737680  19.5421060
  56.8603120  71.0062470  18.0905580  61.8483140  76.0346960  24.8933180
  61.5440210  76.9138940  25.1183540  62.8029600  76.0946750  24.9290620
  60.3764930  80.2407950  15.4900030  59.6027190  79.7005570  15.3298750
  61.1059560  79.7214560  15.1517790  71.1352910  79.2373310  21.2826420
  71.8552030  79.7328600  20.8922530  70.9334730  78.5591200  20.6380290
  66.5962850  70.6311270  15.4255810  65.7827460  70.1324440  15.3501120
  66.4024800  71.4709520  15.0092160  66.5171710  79.3082370  27.1695420
  66.4509020  78.3878040  26.9153010  65.8876850  79.4057810  27.8840060
  69.3111240  75.0030920  13.7217970  70.1990860  75.3148150  13.5469310
  69.2816330  74.1303170  13.3298550  60.4202330  79.9088330  19.1278840
  60.9381000  79.1056590  19.0735730  59.9686350  79.8467470  19.9695670
  65.3071830  81.1754610  14.4006140  65.6487530  81.9196840  13.9049460
  64.4784540  81.4885730  14.7630970  57.9046870  76.8749700  26.0404540
  57.5461810  77.5403550  26.6277880  57.6101430  76.0433250  26.4117160
  61.1059990  77.3333940  28.9244090  60.8060130  77.4791120  28.0271910
  61.8771230  76.7739230  28.8317480  66.4488440  82.1302940  26.9199220
  66.4632980  81.1983900  26.7018130  65.7413540  82.2162700  27.5588990
  71.5825510  76.3142760  13.1897830  71.4989230  76.7456980  12.3394270
  72.3019700  76.7741110  13.6224650  72.6599650  78.7710280  26.2667800
  71.9347840  79.3639060  26.0697190  73.1875110  78.7633820  25.4681170
  72.6112760  83.1685020  15.9179960  71.9688920  82.5140640  16.1923680
  72.2243420  83.5740110  15.1420630  68.1899240  80.4970450  19.7651650
  68.5423060  79.8998580  19.1053020  67.3061570  80.1714680  19.9359900
  64.2762520  81.2568140  17.1722060  64.9633650  81.8037350  17.5529650
  63.4894940  81.8008870  17.2071670  56.4154920  76.8740960  12.6639140
  57.2849770  77.1565760  12.9475060  55.9245240  77.6876830  12.5487950
  63.5789730  78.2614170  16.7847420  64.0352510  79.0719420  17.0107610
  63.2277940  77.9437310  17.6165910  65.8822340  83.7720510  24.0139720
  66.5264560  83.9779890  24.6913140  66.2451780  83.0108910  23.5610570
  59.4801510  68.6051820  17.2569940  59.3516140  68.5969720  18.2054860
  58.6563530  68.9434910  16.9060950  67.1554420  81.7752860  22.7317170
  67.7976650  81.0746020  22.8449340  67.6803770  82.5551300  22.5514060
  71.0010140  82.0601480  12.4556310  70.7747720  81.3431920  13.0480950
  70.6106340  81.8113920  11.6178060  68.9292040  82.5747760  25.9353230
  69.2648280  83.1614450  26.6131150  68.0092380  82.4440470  26.1651020
  56.7826170  86.0868340  13.2300770  57.1423810  86.6857680  12.5758040
  56.6418510  86.6328230  14.0035800  56.4795440  70.3642940  26.7176640
  55.7653960  70.5639860  27.3229250  56.8990480  69.5882510  27.0891440
  70.5826390  79.9773420  14.1170470  70.2948090  80.4386110  14.9048350
  71.3778560  79.5171190  14.3854690  56.7668030  84.3523200  27.7043170
  56.8759150  83.4117940  27.5638560  56.1148590  84.6177950  27.0556900
  64.7580620  82.6239090  29.1041290  64.4377490  81.9048330  29.6486980
  64.0838980  83.2994160  29.1777350  62.7994790  83.4699540  14.0474440
  62.7904890  84.2029230  13.4318950  61.8793150  83.2231120  14.1401400
  58.4001430  78.6914430  14.7921200  57.7929380  79.4313330  14.8016500
  58.8750780  78.7813790  13.9659400  67.9734220  72.8565250  24.4678090
  68.3415040  72.0360460  24.7957660  67.1132420  72.9167140  24.8833740
  71.3396250  71.8122190  15.2765650  70.7109410  71.9167860  14.5623880
  70.8448170  72.0318970  16.0659530  65.7854390  83.5327780  12.7099630
  65.8866370  83.3291770  11.7801610  64.8856130  83.2786060  12.9147410
  63.3080280  74.0908140  16.6923530  62.5996430  74.5594480  17.1337140
  63.5924760  73.4330150  17.3268720  64.9336210  75.5104840  24.6916060
  65.4321460  75.9850660  25.3567910  65.0759160  74.5868360  24.8986090
  67.3395710  70.8158800  18.1319320  67.2163490  70.8344930  17.1828830
  68.2880270  70.8637740  18.2517720  64.4272500  86.0514100  17.4047300
  64.6814000  86.0135490  16.4826670  63.4784980  85.9247430  17.3975550
  61.5115300  72.3993220  14.0674240  62.3605830  72.8363370  14.0014430
  61.1446570  72.7113480  14.8946300  72.1403070  71.7272800  25.5344450
  71.6376670  72.4678200  25.8738260  72.9559730  72.1156800  25.2181240
  70.4325080  76.9705980  18.9805810  69.4915220  76.9856210  19.1553500
  70.7469150  76.1841940  19.4266110  60.4106720  78.6525580  12.5409770
  61.1769990  78.5406940  13.1035200  60.4881410  77.9563550  11.8886540
  59.1053480  76.0850650  13.2242660  59.1857070  75.1378160  13.3360060
  59.9973230  76.4157530  13.3303320  72.4350660  84.1414830  20.6560070
  72.5598080  84.9646000  21.1283880  73.3016220  83.9305560  20.3084220
  59.9068190  86.2346040  20.3277200  60.6430670  85.6861500  20.5985770
  60.2909110  87.1002050  20.1883190  56.7913670  82.3019610  16.2018710
  55.8653450  82.5440750  16.1924120  57.2570100  83.1293870  16.0803460
  58.9126470  85.4192110  29.5162780  59.7139200  85.7404160  29.9298180
  58.3978290  85.0587690  30.2382690  63.0170500  85.4076350  12.1502770
  63.8099110  85.6965180  11.6984560  62.4974850  84.9768520  11.4715250
  67.7491100  81.5271980  29.4638190  67.1429260  81.5503580  28.7233940
  67.4445210  80.7955020  30.0005440  69.1791470  85.2552270  28.0747600
  70.1313220  85.1710290  28.0247840  69.0319690  85.9193980  28.7481390
  72.0700670  84.6346480  13.5739510  71.7842180  84.2211620  12.7593690
  71.8720220  85.5634190  13.4540030  56.6324280  77.9065570  28.4598830
  57.1363300  77.3272850  29.0315060  55.8931700  78.1905800  28.9975200
  63.5347900  80.6279760  12.0145120  63.4298540  80.0132110  12.7406500
  63.3672120  80.1045650  11.2308130  63.6862220  79.3136560  27.9934350
  62.9207890  79.8821560  27.9089020  63.8678180  79.0212770  27.1002580
  66.7750630  79.6899790  12.6187110  66.2260730  80.1369090  13.2629850
  67.3969890  79.1849040  13.1424780  70.8285570  81.0441890  28.5509370
  71.5695040  81.3817650  28.0476830  70.0658250  81.2133950  27.9979140
  58.6647360  76.0495160  29.3548900  58.7052700  75.7509030  30.2634130
  59.5192860  76.4502770  29.1956420  62.4425750  78.6490710  14.5152410
  62.8642170  78.4830580  15.3583800  62.5676590  77.8390940  14.0207550
  60.6053170  74.6287260  27.3223390  60.0749630  74.1378210  26.6946730
  61.2741240  75.0571460  26.7881320  64.9553390  77.6728320  11.7629510
  65.4759050  76.9577340  11.3970660  65.6021790  78.3114190  12.0630020
  69.5031230  79.0956720  27.0864580  69.9172250  79.2501800  27.9355000
  68.5682230  79.2211940  27.2490360  69.9753400  76.4352880  29.0903730
  70.5574170  75.6805200  29.0024210  70.1515170  76.9660320  28.3135210
  61.0925470  71.5949630  27.4020680  60.9982340  70.9770380  26.6771550
  60.5122860  72.3215920  27.1750590  63.8586910  70.1522870  24.4348070
  63.4104210  70.1747130  23.5893620  63.2252110  69.7541890  25.0318370
  64.2646460  79.0477200  25.0560510  64.6834570  79.8909930  24.8836750
  63.3455090  79.1849240  24.8267290  66.6010360  76.7793380  26.4398350
  66.7206570  76.1834520  27.1793190  67.4604360  76.8163070  26.0199650
  68.9398260  77.3330570  25.0160860  68.4133480  77.8573190  24.4126000
  69.2829600  77.9657960  25.6470590  61.3384650  74.7223940  11.4610570
  61.1373710  73.8591300  11.8223910  61.1676700  74.6357300  10.5232170
  62.1153880  85.3530210  26.1718240  61.5774970  86.0776270  25.8526940
  62.3687840  84.8760550  25.3815580  63.3679130  73.3214730  27.6974170
  63.9578820  73.0130580  28.3851990  62.5499370  72.8494480  27.8534070
  68.1872560  72.9380540  27.9307190  67.4988080  72.2762080  27.8657180
  68.9078580  72.4918810  28.3755650  68.8172960  69.5332170  13.9897450
  69.0975250  68.6900070  14.3456870  68.0438690  69.7655280  14.5036200
  60.1367450  71.8224560  11.4488450  60.4393350  71.8291990  10.5407600
  60.8762040  71.4722420  11.9456110  64.9716090  86.5881420  26.4304890
  64.8974790  87.4916560  26.7377260  64.0694930  86.2693320  26.4026960
  63.3552380  70.7659180  12.4344650  63.0074380  70.0883170  11.8547100
  63.5565150  70.3048690  13.2488040  65.5201420  85.7539930  14.0531250
  66.4152210  86.0924900  14.0750010  65.5519050  85.0319340  13.4255530
  59.1597580  81.1266980  12.2818250  59.5972450  81.6696650  12.9375830
  59.6445310  80.3013930  12.2914590  56.3743380  83.9156010  19.7338510
  56.7046390  83.0477070  19.5017150  56.8034380  84.1214530  20.5643470
  60.9705300  82.2465020  17.3940480  60.6700840  82.1229990  18.2944390
  60.8642790  81.3873610  16.9856210  56.8633590  84.7826600  22.4720140
  56.4264580  84.9627400  23.3044290  57.4311270  85.5401220  22.3301860
  72.4995770  84.2843600  26.7597450  71.8997760  84.3436160  26.0161370
  72.6289670  83.3448580  26.8894300  73.7397220  82.0261420  12.0967160
  72.9090180  82.0938070  12.5674390  73.9169050  82.9165540  11.7934020
  73.1953680  78.7708900  14.6001360  73.9572590  79.3405550  14.7061050
  73.2108050  78.2036100  15.3709670  56.6958020  77.2946830  18.8309020
  56.0406860  77.0258470  18.1868720  57.5335970  77.1851310  18.3811000
  74.2013650  79.6259000  19.4443290  74.5722480  78.8426320  19.0379260
  74.8415580  80.3148100  19.2660590  71.1847410  81.0095580  24.8573610
  70.3707250  81.4392740  25.1199400  71.5921610  81.6213990  24.2442660
  73.2472850  79.0643270  11.7573880  73.5221690  79.9722150  11.6293100
  73.0583590  79.0005800  12.6935870  69.6448460  72.0888120  13.0527510
  70.0633340  71.9019100  12.2124170  69.3384520  71.2367170  13.3630440
  73.1438190  77.0012260  16.7503310  72.7681790  76.2340190  16.3184600
  72.4141310  77.3834960  17.2378240  57.7333950  77.6799400  23.3712360
  58.1006990  77.5926800  24.2508380  57.1644770  76.9165950  23.2719220
  72.5337810  76.1483780  26.3842830  72.3023900  75.9196530  25.4840780
  72.7942360  77.0683330  26.3387720  57.2849950  74.5908490  27.2770780
  56.3906000  74.5575250  27.6164490  57.8247500  74.7895280  28.0422030
  70.9725880  71.3740210  29.1622530  71.8496060  71.3823610  29.5456530
  70.9846720  70.6371050  28.5514880  55.9096100  74.5045760  14.7734350
  55.0060180  74.7675960  14.5986010  56.3936720  74.7756930  13.9934310
  72.4189150  75.2269750  20.0510550  72.9426630  74.7332400  19.4200720
  73.0048570  75.3620110  20.7958120  72.5978870  75.3109620  23.5730100
  71.6481580  75.2773160  23.6875090  72.7791880  76.2209730  23.3379870
  58.4523310  73.5611300  12.6828730  59.1615010  73.1394520  12.1976010
  57.7363250  73.6286530  12.0512080  58.0997470  69.6150630  11.7231380
  58.8225600  70.1559570  12.0412600  58.3721990  69.3414050  10.8472920
  71.9089120  74.4843100  15.9902960  72.4048240  74.2513970  16.7751840
  71.7105190  73.6454940  15.5740600  57.7889660  68.8656820  21.6254000
  58.4365850  68.3154200  21.1849160  58.2091500  69.1199970  22.4469810
  73.3376280  73.1204050  18.5240640  73.2275560  72.9660090  19.4622910
  74.0983870  72.5924990  18.2816050  71.6842000  69.0598180  24.9823640
  72.3214220  69.6732320  25.3482830  71.8316890  69.0958840  24.0372870
  74.2266550  70.9511970  11.7646780  75.1515860  70.8193150  11.5565070
  74.2042340  71.0304790  12.7183230  74.3005040  71.7222630  14.3903490
  73.5056540  71.6567750  14.9196400  74.5048320  72.6573270  14.3788840
  71.2423460  85.7614180  18.3841880  71.8382530  85.4398750  17.7076300
  71.5001610  85.2886000  19.1755150  57.5421660  69.0212490  24.3679320
  57.1936480  69.4776310  25.1337500  57.2109360  68.1269620  24.4501750
  59.1486030  82.1932090  28.5332510  59.1055660  81.8225000  29.4146970
  59.2797040  83.1309660  28.6734330  62.8492060  83.7491680  24.1342230
  62.6083420  84.0166240  23.2472750  63.7894700  83.9197410  24.1893090
  65.0546480  70.2124370  27.8898740  64.9935370  70.8046200  28.6394150
  65.9946860  70.1050330  27.7449000  67.6921040  69.8694430  27.5291030
  68.3061450  70.1873720  26.8672110  68.2370600  69.3843020  28.1486890
  74.1096220  85.7686060  24.9352870  73.6154500  86.1654930  24.2180000
  73.5009510  85.1435270  25.3290150  58.2142300  68.5488690  27.6430090
  58.7625290  68.3676740  26.8796200  58.2797610  67.7582800  28.1786400
  58.9874060  85.1394340  25.6530290  58.3934380  85.0079040  26.3920330
  58.9797900  84.3032480  25.1872390  68.4329080  68.4326570  23.8560320
  67.5588920  68.7661680  23.6533250  68.3239830  67.9599750  24.6812190
  69.3401060  70.6397440  25.2402040  69.0114420  69.8249200  24.8603770
  70.2883360  70.5967250  25.1167730  71.7935670  86.4109480  22.2139610
  71.3338640  87.1625290  21.8397630  71.1648130  85.6915950  22.1554410
  58.6186290  82.5052720  24.6038330  57.8920350  81.8858010  24.5364280
  58.6795440  82.8993330  23.7336410  62.2231390  84.7197720  21.3887740
  62.7396410  84.1085080  20.8636000  62.8728770  85.2226500  21.8798750
  64.9626890  85.6106210  22.2156720  65.2504700  85.3560510  21.3389730
  65.4750110  85.0583570  22.8062290  66.1803900  69.3496410  22.7953230
  65.3975690  69.8241910  23.0749990  65.8866830  68.4451240  22.6866410
  70.7324970  70.0519510  20.8402320  71.1733060  69.9964610  19.9923920
  70.4632560  70.9677520  20.9112500  72.5963540  69.6834750  18.8511140
  72.5351940  68.7395970  18.7042160  73.3755570  69.7914840  19.3964600
  56.9016290  85.8227110  17.8135090  56.7338330  85.1897790  18.5116980
  56.0350800  86.0286510  17.4629280  57.5244310  69.6543890  15.3166950
  58.2823670  69.7672770  14.7430980  57.0621480  70.4913090  15.2710380
  64.0658120  71.7683160  18.3069260  63.2532630  71.3940050  17.9665140
  64.5699760  71.0128240  18.6090450  68.5683100  68.4325610  19.5452330
  69.1712470  69.0045820  20.0200850  67.8276090  68.9965050  19.3226230
  71.7117700  68.8347170  14.8192610  71.9068330  69.7330620  15.0860040
  70.9247570  68.6034250  15.3125560  58.5078990  84.5160340  15.2585230
  57.9826610  84.8968370  14.5547190  58.4323570  85.1411110  15.9794940
  59.8969460  70.1807940  13.8568920  60.4262220  69.3937740  13.7276870
  60.5297780  70.8599130  14.0904450  62.0907300  69.9183080  16.9114310
  61.4610040  69.2170390  17.0784440  61.5512440  70.6787210  16.6947470
  65.0299250  86.5322310  29.5824920  65.9566560  86.2966580  29.6260880
  65.0149680  87.3594310  29.1010950  73.2644310  86.0747880  16.5799170
  73.4396500  85.3885620  15.9360090  72.5665880  86.5994930  16.1875840
  62.2162860  69.1967060  29.3466800  61.9347130  69.7000660  28.5827620
  62.5982560  68.3988810  28.9808930  61.1071960  86.4642720  14.1334480
  61.8390780  86.1802000  13.5858370  61.3665630  86.2256000  15.0233860
  60.2686750  82.5807450  14.1380810  59.6395630  83.0492550  14.6866640
  60.3834580  81.7356670  14.5727000  68.8178320  68.6120640  29.9247270
  68.7043770  68.9315250  30.8198790  69.6348060  69.0133150  29.6284550
  71.5976810  85.7592170  29.4065960  72.3902130  85.2641400  29.1991920
  71.8909960  86.4382310  30.0141570  65.8554510  78.4092130   2.1691280
  65.0796610  77.9292570   2.4589850  66.5067440  77.7297780   1.9947440
  59.8720340  78.7211940   3.0467040  59.0405220  78.4660650   3.4463550
  60.4801320  78.7922710   3.7824960  59.8521600  82.7552030   3.2425060
  60.1549640  81.8649770   3.0635280  60.5965190  83.3122250   3.0147310
  56.2445300  76.2819480   2.7149130  56.8161410  75.5141680   2.7152770
  56.2446840  76.5808240   1.8055740  65.2963500  81.0849320   2.1761440
  65.2271780  80.1439260   2.0150570  66.0583360  81.1750730   2.7484010
  57.4870170  71.6903840   4.5018060  57.3073010  70.7929590   4.7820820
  57.0850250  72.2375710   5.1765010  58.1056840  74.1864340   3.1100400
  58.7866950  74.4502710   3.7287800  57.7904890  73.3465210   3.4438410
  62.2981410  75.2331700   2.1972990  62.8059630  75.7312670   2.8378010
  62.8294650  74.4566900   2.0212350  74.3992340  73.4036890   5.9002340
  73.6944510  73.7918600   5.3817450  74.6650260  74.0987180   6.5023270
  60.5817510  69.8730260   6.4636410  60.5835950  70.3902650   5.6582310
  59.7521820  69.3960440   6.4406340  61.8320360  79.5125440   4.6409910
  61.4989740  80.1394360   5.2830980  62.0087040  80.0387320   3.8611580
  70.3454270  73.3270520   2.1086250  69.6409840  73.6155410   2.6889360
  70.7066430  74.1370630   1.7485810  60.2632840  71.5840220   4.4706860
  60.6049650  72.4282270   4.1760730  59.3248650  71.7323960   4.5872200
  61.0439460  81.4806240   6.4559090  61.6613460  82.1557320   6.1743540
  60.1832580  81.8894220   6.3646590  71.9617050  82.9445650   4.3713730
  71.2780570  83.6144760   4.3630400  72.5011340  83.1426300   3.6058590
  73.4141190  72.7725310   2.4995460  72.4666100  72.8064290   2.6310890
  73.7391180  73.5864260   2.8844820  69.4975790  84.7889780   3.0858910
  69.5102950  84.3852070   2.2181170  68.9451010  85.5637070   2.9820340
  68.8961230  79.6919620   4.4141520  69.3130020  79.4779730   3.5794980
  69.6201050  79.9492410   4.9850140  72.8423330  78.0906840   4.5057760
  72.0141960  78.1599930   4.0307890  73.4373810  78.6761150   4.0373590
  69.8065340  74.8776160   5.4512630  69.3936520  75.7029870   5.7052620
  69.0741290  74.2921200   5.2588990  62.4079830  81.3503620   2.4770510
  62.1108120  80.7449090   1.7978290  63.3579650  81.3880930   2.3659870
  60.6526750  74.4379270   4.0930340  61.2041340  74.5474610   3.3183590
  61.1670260  74.8116870   4.8085570  70.4965440  84.9235490   6.1393610
  70.0196000  85.7307680   5.9466220  69.8127230  84.2713820   6.2919820
  61.4998260  81.0885310   9.1278310  60.6026790  81.3125280   9.3751710
  61.5251130  81.2120250   8.1789710  60.3269480  77.9598630   7.7035680
  60.1877250  78.8321430   8.0723080  59.4450840  77.6171440   7.5583620
  62.1249830  83.9020330   9.9120830  62.0965260  84.3063280   9.0449260
  61.9614800  82.9730690   9.7492430  74.0764650  84.6847430  11.2085000
  74.5524370  85.1630320  11.8874080  74.6971810  84.6164920  10.4830500
  56.2788130  79.7296180   3.6206590  56.3568550  79.8644950   2.6762310
  56.8929810  79.0212070   3.8134710  73.4797900  81.8760280   8.3685010
  73.6060960  81.6372160   7.4502190  73.5219280  81.0444820   8.8407090
  67.3414640  85.5788280   6.9379820  67.8559310  85.4896290   7.7402250
  66.4983720  85.9247980   7.2307730  73.3321910  73.9292740   9.3334750
  72.7166180  74.4372410   8.8050210  73.0118330  73.0291070   9.2760690
  56.3347650  80.7710350   6.1601050  56.4978690  80.3015710   5.3420420
  56.8000100  80.2633910   6.8249890  65.3936230  72.7684630   6.7996940
  64.9315600  72.9767650   7.6116880  64.9914340  71.9543980   6.4967610
  70.3940740  73.9893580   7.9293600  69.5434330  73.6899330   8.2502670
  70.2342530  74.2335590   7.0177420  67.4890450  75.4895330  10.0292390
  67.8143860  74.6559080   9.6894620  68.2770780  76.0123850  10.1770720
  63.1442320  70.4463440   3.0551220  63.4414650  71.3526270   2.9743240
  63.6927880  69.9582220   2.4410790  63.3379850  75.9235260   9.5903140
  63.2423450  74.9829990   9.4403540  64.1811830  76.1450330   9.1951210
  58.4690390  72.3348930   7.7436920  58.0753780  73.1824140   7.9509700
  57.7808790  71.6975300   7.9345560  65.0435440  72.4183900  10.8133660
  64.3533760  72.2256100  11.4479750  65.7867740  72.7018540  11.3457960
  55.7707440  70.2577390   1.7767000  55.4820490  70.8280250   2.4891980
  56.5153200  69.7781840   2.1398230  67.3198410  76.2582340   3.6487580
  66.5879530  76.7669150   3.9977680  66.9222750  75.4412320   3.3476360
  67.7824320  71.7116020   3.0610520  67.7997060  72.1624670   3.9052370
  67.5339900  70.8121660   3.2743960  71.2095070  69.1248200   8.8996900
  71.5340840  68.3937860   9.4254880  71.2451580  68.8061840   7.9977890
  57.9086630  80.1461780   8.3196860  57.5241420  79.5055450   8.9179820
  58.2198820  80.8497900   8.8891590  64.0583770  76.9938320   3.8005480
  64.4253900  76.5196890   4.5466820  63.8688830  77.8679890   4.1413820
  61.8483140  76.0346960   6.1189690  61.5440210  76.9138940   6.3440050
  62.8029600  76.0946750   6.1547130  71.1352910  79.2373310   2.5082930
  71.8552030  79.7328600   2.1179040  70.9334730  78.5591200   1.8636800
  66.5171710  79.3082370   8.3951930  66.4509020  78.3878040   8.1409520
  65.8876850  79.4057810   9.1096570  57.9046870  76.8749700   7.2661050
  57.5461810  77.5403550   7.8534390  57.6101430  76.0433250   7.6373670
  61.1059990  77.3333940  10.1500600  60.8060130  77.4791120   9.2528420
  61.8771230  76.7739230  10.0573990  66.4488440  82.1302940   8.1455730
  66.4632980  81.1983900   7.9274640  65.7413540  82.2162700   8.7845500
  72.6599650  78.7710280   7.4924310  71.9347840  79.3639060   7.2953700
  73.1875110  78.7633820   6.6937680  65.8822340  83.7720510   5.2396230
  66.5264560  83.9779890   5.9169650  66.2451780  83.0108910   4.7867080
  67.1554420  81.7752860   3.9573680  67.7976650  81.0746020   4.0705850
  67.6803770  82.5551300   3.7770570  68.9292040  82.5747760   7.1609740
  69.2648280  83.1614450   7.8387660  68.0092380  82.4440470   7.3907530
  56.4795440  70.3642940   7.9433150  55.7653960  70.5639860   8.5485760
  56.8990480  69.5882510   8.3147950  56.7668030  84.3523200   8.9299680
  56.8759150  83.4117940   8.7895070  56.1148590  84.6177950   8.2813410
  64.7580620  82.6239090  10.3297800  64.4377490  81.9048330  10.8743490
  64.0838980  83.2994160  10.4033860  67.9734220  72.8565250   5.6934600
  68.3415040  72.0360460   6.0214170  67.1132420  72.9167140   6.1090250
  64.9336210  75.5104840   5.9172570  65.4321460  75.9850660   6.5824420
  65.0759160  74.5868360   6.1242600  72.1403070  71.7272800   6.7600960
  71.6376670  72.4678200   7.0994770  72.9559730  72.1156800   6.4437750
  58.9126470  85.4192110  10.7419290  59.7139200  85.7404160  11.1554690
  58.3978290  85.0587690  11.4639200  67.7491100  81.5271980  10.6894700
  67.1429260  81.5503580   9.9490450  67.4445210  80.7955020  11.2261950
  69.1791470  85.2552270   9.3004110  70.1313220  85.1710290   9.2504350
  69.0319690  85.9193980   9.9737900  56.6324280  77.9065570   9.6855340
  57.1363300  77.3272850  10.2571570  55.8931700  78.1905800  10.2231710
  63.6862220  79.3136560   9.2190860  62.9207890  79.8821560   9.1345530
  63.8678180  79.0212770   8.3259090  70.8285570  81.0441890   9.7765880
  71.5695040  81.3817650   9.2733340  70.0658250  81.2133950   9.2235650
  58.6647360  76.0495160  10.5805410  58.7052700  75.7509030  11.4890640
  59.5192860  76.4502770  10.4212930  60.6053170  74.6287260   8.5479900
  60.0749630  74.1378210   7.9203240  61.2741240  75.0571460   8.0137830
  69.5031230  79.0956720   8.3121090  69.9172250  79.2501800   9.1611510
  68.5682230  79.2211940   8.4746870  69.9753400  76.4352880  10.3160240
  70.5574170  75.6805200  10.2280720  70.1515170  76.9660320   9.5391720
  61.0925470  71.5949630   8.6277190  60.9982340  70.9770380   7.9028060
  60.5122860  72.3215920   8.4007100  63.8586910  70.1522870   5.6604580
  63.4104210  70.1747130   4.8150130  63.2252110  69.7541890   6.2574880
  64.2646460  79.0477200   6.2817020  64.6834570  79.8909930   6.1093260
  63.3455090  79.1849240   6.0523800  66.6010360  76.7793380   7.6654860
  66.7206570  76.1834520   8.4049700  67.4604360  76.8163070   7.2456160
  68.9398260  77.3330570   6.2417370  68.4133480  77.8573190   5.6382510
  69.2829600  77.9657960   6.8727100  62.1153880  85.3530210   7.3974750
  61.5774970  86.0776270   7.0783450  62.3687840  84.8760550   6.6072090
  63.3679130  73.3214730   8.9230680  63.9578820  73.0130580   9.6108500
  62.5499370  72.8494480   9.0790580  68.1872560  72.9380540   9.1563700
  67.4988080  72.2762080   9.0913690  68.9078580  72.4918810   9.6012160
  64.9716090  86.5881420   7.6561400  64.8974790  87.4916560   7.9633770
  64.0694930  86.2693320   7.6283470  56.8633590  84.7826600   3.6976650
  56.4264580  84.9627400   4.5300800  57.4311270  85.5401220   3.5558370
  72.4995770  84.2843600   7.9853960  71.8997760  84.3436160   7.2417880
  72.6289670  83.3448580   8.1150810  71.1847410  81.0095580   6.0830120
  70.3707250  81.4392740   6.3455910  71.5921610  81.6213990   5.4699170
  57.7333950  77.6799400   4.5968870  58.1006990  77.5926800   5.4764890
  57.1644770  76.9165950   4.4975730  72.5337810  76.1483780   7.6099340
  72.3023900  75.9196530   6.7097290  72.7942360  77.0683330   7.5644230
  57.2849950  74.5908490   8.5027290  56.3906000  74.5575250   8.8421000
  57.8247500  74.7895280   9.2678540  70.9725880  71.3740210  10.3879040
  71.8496060  71.3823610  10.7713040  70.9846720  70.6371050   9.7771390
  72.5978870  75.3109620   4.7986610  71.6481580  75.2773160   4.9131600
  72.7791880  76.2209730   4.5636380  57.7889660  68.8656820   2.8510510
  58.4365850  68.3154200   2.4105670  58.2091500  69.1199970   3.6726320
  71.6842000  69.0598180   6.2080150  72.3214220  69.6732320   6.5739340
  71.8316890  69.0958840   5.2629380  57.5421660  69.0212490   5.5935830
  57.1936480  69.4776310   6.3594010  57.2109360  68.1269620   5.6758260
  59.1486030  82.1932090   9.7589020  59.1055660  81.8225000  10.6403480
  59.2797040  83.1309660   9.8990840  62.8492060  83.7491680   5.3598740
  62.6083420  84.0166240   4.4729260  63.7894700  83.9197410   5.4149600
  65.0546480  70.2124370   9.1155250  64.9935370  70.8046200   9.8650660
  65.9946860  70.1050330   8.9705510  67.6921040  69.8694430   8.7547540
  68.3061450  70.1873720   8.0928620  68.2370600  69.3843020   9.3743400
  74.1096220  85.7686060   6.1609380  73.6154500  86.1654930   5.4436510
  73.5009510  85.1435270   6.5546660  58.2142300  68.5488690   8.8686600
  58.7625290  68.3676740   8.1052710  58.2797610  67.7582800   9.4042910
  58.9874060  85.1394340   6.8786800  58.3934380  85.0079040   7.6176840
  58.9797900  84.3032480   6.4128900  68.4329080  68.4326570   5.0816830
  67.5588920  68.7661680   4.8789760  68.3239830  67.9599750   5.9068700
  69.3401060  70.6397440   6.4658550  69.0114420  69.8249200   6.0860280
  70.2883360  70.5967250   6.3424240  71.7935670  86.4109480   3.4396120
  71.3338640  87.1625290   3.0654140  71.1648130  85.6915950   3.3810920
  58.6186290  82.5052720   5.8294840  57.8920350  81.8858010   5.7620790
  58.6795440  82.8993330   4.9592920  62.2231390  84.7197720   2.6144250
  62.7396410  84.1085080   2.0892510  62.8728770  85.2226500   3.1055260
  64.9626890  85.6106210   3.4413230  65.2504700  85.3560510   2.5646240
  65.4750110  85.0583570   4.0318800  66.1803900  69.3496410   4.0209740
  65.3975690  69.8241910   4.3006500  65.8866830  68.4451240   3.9122920
  65.0299250  86.5322310  10.8081430  65.9566560  86.2966580  10.8517390
  65.0149680  87.3594310  10.3267460  62.2162860  69.1967060  10.5723310
  61.9347130  69.7000660   9.8084130  62.5982560  68.3988810  10.2065440
  68.8178320  68.6120640  11.1503780  68.7043770  68.9315250  12.0455300
  69.6348060  69.0133150  10.8541060  71.5976810  85.7592170  10.6322470
  72.3902130  85.2641400  10.4248430  71.8909960  86.4382310  11.2398080
  67.7236470  57.8569620  94.1599460  67.6430520  56.9424230  93.8891170
  67.3100890  58.3536690  93.4539170  69.8761940  64.0408830  94.8207860
  69.4143470  63.2696070  95.1495030  70.6887490  64.0674900  95.3260310
  58.2812290  54.9070340  90.7026880  57.3928990  55.2486310  90.6006760
  58.5653480  54.7070660  89.8107710  66.1025250  66.3266840  94.4411850
  65.4836690  66.7824340  93.8706290  66.9577030  66.4818300  94.0401550
  60.4573680  53.4901840  91.7365260  60.5640430  54.3905570  92.0434020
  59.5466040  53.4419810  91.4459910  70.1092790  52.6126650  93.2076160
  70.9302410  52.1223220  93.2501640  70.1426870  53.2024310  93.9608000
  66.9688600  61.2106080  91.8343760  66.3505870  61.6755530  91.2706480
  67.4811850  61.9033560  92.2513270  56.3371800  61.8962610  89.2083390
  55.9599780  62.3849710  88.4768290  56.5944870  62.5687890  89.8389920
  63.9460730  50.2979000  94.6668900  64.2535710  49.7425890  93.9504400
  63.0161430  50.4323460  94.4841890  70.7921210  62.7362510  92.0466530
  70.6817540  61.7936840  92.1715950  70.7889460  63.0978150  92.9329290
  66.3341490  58.3627830  91.4029020  65.4070770  58.2965210  91.6317490
  66.4866310  59.3007960  91.2884260  66.3210570  54.6344830  88.3996180
  65.3814240  54.7958790  88.4848640  66.6393830  55.3530510  87.8532170
  70.3638780  59.9248130  91.9064270  69.7451200  59.5867680  91.2590570
  70.3463230  59.2807890  92.6143460  61.9398130  58.8892570  94.1848750
  61.5355130  58.1769820  93.6894650  62.0261250  58.5445810  95.0736790
  68.5403480  59.1634940  88.9137020  68.9796760  58.3257370  88.7674840
  69.2531900  59.7964340  89.0001160  66.6498860  64.1031010  92.8818260
  67.0894770  64.8455340  92.4673650  66.5885750  64.3457580  93.8057220
  72.1220620  50.4177750  87.2278060  71.8093280  50.5104580  88.1277130
  72.8833090  50.9958780  87.1775490  58.6402760  57.7837550  91.6855400
  58.5200360  58.5099640  91.0736670  58.3303650  57.0140460  91.2083310
  57.5235760  62.6552880  93.9030220  57.1163840  62.7967470  93.0483820
  58.4148770  62.3713040  93.7001430  69.3169040  67.0900130  90.2381270
  69.1570180  66.8003070  91.1363100  69.1515750  66.3140260  89.7026500
  61.7957420  66.8698660  92.0152890  61.6199900  65.9534200  91.8020690
  60.9413160  67.2285950  92.2550690  69.0195170  64.5987690  88.7979270
  68.3260330  64.5964980  88.1381550  69.7618030  64.1747010  88.3673440
  68.5845100  66.2250400  92.8727760  69.0402050  65.4439780  93.1866380
  68.9237620  66.9357220  93.4168940  61.1066420  51.1272620  95.0679070
  60.6634570  51.9082160  94.7363590  61.6651410  51.4502510  95.7750010
  64.2225240  50.7483320  89.9484900  63.5979420  50.7443190  90.6738210
  64.1355360  49.8814280  89.5520870  60.8980640  56.2506190  92.7960320
  60.6721560  56.0343360  93.7006940  60.1173170  56.6834650  92.4506290
  68.1278400  56.2569560  91.3950970  67.5287290  56.9805360  91.2114590
  68.6758010  56.1946340  90.6127420  66.7343270  54.8933100  93.4254250
  67.1272840  55.2105300  92.6122940  67.0960120  54.0144980  93.5398770
  55.9577670  55.4254020  86.8587170  55.8752340  56.3684780  87.0002160
  55.6060730  55.2828930  85.9799520  63.7575800  54.1593050  95.9257520
  63.7611860  53.7183000  95.0762060  64.6526920  54.4810380  96.0329340
  59.6078180  54.0419540  94.8851730  59.2678230  54.5194770  95.6418780
  58.8455500  53.5884660  94.5252830  63.8195950  55.1605130  88.9164280
  63.9408770  55.1191610  89.8650100  63.4344460  56.0229280  88.7611010
  62.8317450  57.4706270  88.3147580  62.2634350  57.0224520  87.6883490
  63.5406450  57.8299050  87.7812730  56.9224260  52.9638520  93.8016400
  56.6371180  52.5994190  94.6395020  56.8603120  52.2318980  93.1879540
  60.3764930  61.4664460  90.5873990  59.6027190  60.9262080  90.4272710
  61.1059560  60.9471070  90.2491750  66.5962850  51.8567780  90.5229770
  65.7827460  51.3580950  90.4475080  66.4024800  52.6966030  90.1066120
  69.3111240  56.2287430  88.8191930  70.1990860  56.5404660  88.6443270
  69.2816330  55.3559680  88.4272510  60.4202330  61.1344840  94.2252800
  60.9381000  60.3313100  94.1709690  59.9686350  61.0723980  95.0669630
  65.3071830  62.4011120  89.4980100  65.6487530  63.1453350  89.0023420
  64.4784540  62.7142240  89.8604930  71.5825510  57.5399270  88.2871790
  71.4989230  57.9713490  87.4368230  72.3019700  57.9997620  88.7198610
  72.6112760  64.3941530  91.0153920  71.9688920  63.7397150  91.2897640
  72.2243420  64.7996620  90.2394590  68.1899240  61.7226960  94.8625610
  68.5423060  61.1255090  94.2026980  67.3061570  61.3971190  95.0333860
  64.2762520  62.4824650  92.2696020  64.9633650  63.0293860  92.6503610
  63.4894940  63.0265380  92.3045630  56.4154920  58.0997470  87.7613100
  57.2849770  58.3822270  88.0449020  55.9245240  58.9133340  87.6461910
  63.5789730  59.4870680  91.8821380  64.0352510  60.2975930  92.1081570
  63.2277940  59.1693820  92.7139870  59.4801510  49.8308330  92.3543900
  59.3516140  49.8226230  93.3028820  58.6563530  50.1691420  92.0034910
  71.0010140  63.2857990  87.5530270  70.7747720  62.5688430  88.1454910
  70.6106340  63.0370430  86.7152020  56.7826170  67.3124850  88.3274730
  57.1423810  67.9114190  87.6732000  56.6418510  67.8584740  89.1009760
  70.5826390  61.2029930  89.2144430  70.2948090  61.6642620  90.0022310
  71.3778560  60.7427700  89.4828650  62.7994790  64.6956050  89.1448400
  62.7904890  65.4285740  88.5292910  61.8793150  64.4487630  89.2375360
  58.4001430  59.9170940  89.8895160  57.7929380  60.6569840  89.8990460
  58.8750780  60.0070300  89.0633360  71.3396250  53.0378700  90.3739610
  70.7109410  53.1424370  89.6597840  70.8448170  53.2575480  91.1633490
  65.7854390  64.7584290  87.8073590  65.8866370  64.5548280  86.8775570
  64.8856130  64.5042570  88.0121370  63.3080280  55.3164650  91.7897490
  62.5996430  55.7850990  92.2311100  63.5924760  54.6586660  92.4242680
  67.3395710  52.0415310  93.2293280  67.2163490  52.0601440  92.2802790
  68.2880270  52.0894250  93.3491680  64.4272500  67.2770610  92.5021260
  64.6814000  67.2392000  91.5800630  63.4784980  67.1503940  92.4949510
  61.5115300  53.6249730  89.1648200  62.3605830  54.0619880  89.0988390
  61.1446570  53.9369990  89.9920260  70.4325080  58.1962490  94.0779770
  69.4915220  58.2112720  94.2527460  70.7469150  57.4098450  94.5240070
  60.4106720  59.8782090  87.6383730  61.1769990  59.7663450  88.2009160
  60.4881410  59.1820060  86.9860500  59.1053480  57.3107160  88.3216620
  59.1857070  56.3634670  88.4334020  59.9973230  57.6414040  88.4277280
  59.9068190  67.4602550  95.4251160  60.6430670  66.9118010  95.6959730
  60.2909110  68.3258560  95.2857150  56.7913670  63.5276120  91.2992670
  55.8653450  63.7697260  91.2898080  57.2570100  64.3550380  91.1777420
  63.0170500  66.6332860  87.2476730  63.8099110  66.9221690  86.7958520
  62.4974850  66.2025030  86.5689210  72.0700670  65.8602990  88.6713470
  71.7842180  65.4468130  87.8567650  71.8720220  66.7890700  88.5513990
  63.5347900  61.8536270  87.1119080  63.4298540  61.2388620  87.8380460
  63.3672120  61.3302160  86.3282090  66.7750630  60.9156300  87.7161070
  66.2260730  61.3625600  88.3603810  67.3969890  60.4105550  88.2398740
  62.4425750  59.8747220  89.6126370  62.8642170  59.7087090  90.4557760
  62.5676590  59.0647450  89.1181510  64.9553390  58.8984830  86.8603470
  65.4759050  58.1833850  86.4944620  65.6021790  59.5370700  87.1603980
  61.3384650  55.9480450  86.5584530  61.1373710  55.0847810  86.9197870
  61.1676700  55.8613810  85.6206130  68.8172960  50.7588680  89.0871410
  69.0975250  49.9156580  89.4430830  68.0438690  50.9911790  89.6010160
  60.1367450  53.0481070  86.5462410  60.4393350  53.0548500  85.6381560
  60.8762040  52.6978930  87.0430070  63.3552380  51.9915690  87.5318610
  63.0074380  51.3139680  86.9521060  63.5565150  51.5305200  88.3462000
  65.5201420  66.9796440  89.1505210  66.4152210  67.3181410  89.1723970
  65.5519050  66.2575850  88.5229490  59.1597580  62.3523490  87.3792210
  59.5972450  62.8953160  88.0349790  59.6445310  61.5270440  87.3888550
  56.3743380  65.1412520  94.8312470  56.7046390  64.2733580  94.5991110
  56.8034380  65.3471040  95.6617430  60.9705300  63.4721530  92.4914440
  60.6700840  63.3486500  93.3918350  60.8642790  62.6130120  92.0830170
  73.7397220  63.2517930  87.1941120  72.9090180  63.3194580  87.6648350
  73.9169050  64.1422050  86.8907980  73.1953680  59.9965410  89.6975320
  73.9572590  60.5662060  89.8035010  73.2108050  59.4292610  90.4683630
  56.6958020  58.5203340  93.9282980  56.0406860  58.2514980  93.2842680
  57.5335970  58.4107820  93.4784960  74.2013650  60.8515510  94.5417250
  74.5722480  60.0682830  94.1353220  74.8415580  61.5404610  94.3634550
  73.2472850  60.2899780  86.8547840  73.5221690  61.1978660  86.7267060
  73.0583590  60.2262310  87.7909830  69.6448460  53.3144630  88.1501470
  70.0633340  53.1275610  87.3098130  69.3384520  52.4623680  88.4604400
  73.1438190  58.2268770  91.8477270  72.7681790  57.4596700  91.4158560
  72.4141310  58.6091470  92.3352200  55.9096100  55.7302270  89.8708310
  55.0060180  55.9932470  89.6959970  56.3936720  56.0013440  89.0908270
  72.4189150  56.4526260  95.1484510  72.9426630  55.9588910  94.5174680
  73.0048570  56.5876620  95.8932080  58.4523310  54.7867810  87.7802690
  59.1615010  54.3651030  87.2949970  57.7363250  54.8543040  87.1486040
  58.0997470  50.8407140  86.8205340  58.8225600  51.3816080  87.1386560
  58.3721990  50.5670560  85.9446880  71.9089120  55.7099610  91.0876920
  72.4048240  55.4770480  91.8725800  71.7105190  54.8711450  90.6714560
  73.3376280  54.3460560  93.6214600  73.2275560  54.1916600  94.5596870
  74.0983870  53.8181500  93.3790010  74.2266550  52.1768480  86.8620740
  75.1515860  52.0449660  86.6539030  74.2042340  52.2561300  87.8157190
  74.3005040  52.9479140  89.4877450  73.5056540  52.8824260  90.0170360
  74.5048320  53.8829780  89.4762800  71.2423460  66.9870690  93.4815840
  71.8382530  66.6655260  92.8050260  71.5001610  66.5142510  94.2729110
  70.7324970  51.2776020  95.9376280  71.1733060  51.2221120  95.0897880
  70.4632560  52.1934030  96.0086460  72.5963540  50.9091260  93.9485100
  72.5351940  49.9652480  93.8016120  73.3755570  51.0171350  94.4938560
  56.9016290  67.0483620  92.9109050  56.7338330  66.4154300  93.6090940
  56.0350800  67.2543020  92.5603240  57.5244310  50.8800400  90.4140910
  58.2823670  50.9929280  89.8404940  57.0621480  51.7169600  90.3684340
  64.0658120  52.9939670  93.4043220  63.2532630  52.6196560  93.0639100
  64.5699760  52.2384750  93.7064410  68.5683100  49.6582120  94.6426290
  69.1712470  50.2302330  95.1174810  67.8276090  50.2221560  94.4200190
  71.7117700  50.0603680  89.9166570  71.9068330  50.9587130  90.1834000
  70.9247570  49.8290760  90.4099520  58.5078990  65.7416850  90.3559190
  57.9826610  66.1224880  89.6521150  58.4323570  66.3667620  91.0768900
  59.8969460  51.4064450  88.9542880  60.4262220  50.6194250  88.8250830
  60.5297780  52.0855640  89.1878410  62.0907300  51.1439590  92.0088270
  61.4610040  50.4426900  92.1758400  61.5512440  51.9043720  91.7921430
  73.2644310  67.3004390  91.6773130  73.4396500  66.6142130  91.0334050
  72.5665880  67.8251440  91.2849800  61.1071960  67.6899230  89.2308440
  61.8390780  67.4058510  88.6832330  61.3665630  67.4512510  90.1207820
  60.2686750  63.8063960  89.2354770  59.6395630  64.2749060  89.7840600
  60.3834580  62.9613180  89.6700960  67.7236470  57.8569620  75.3855970
  67.6430520  56.9424230  75.1147680  67.3100890  58.3536690  74.6795680
  65.8554510  59.6348640  77.2665240  65.0796610  59.1549080  77.5563810
  66.5067440  58.9554290  77.0921400  59.8720340  59.9468450  78.1441000
  59.0405220  59.6917160  78.5437510  60.4801320  60.0179220  78.8798920
  69.8761940  64.0408830  76.0464370  69.4143470  63.2696070  76.3751540
  70.6887490  64.0674900  76.5516820  59.8521600  63.9808540  78.3399020
  60.1549640  63.0906280  78.1609240  60.5965190  64.5378760  78.1121270
  58.2812290  54.9070340  71.9283390  57.3928990  55.2486310  71.8263270
  58.5653480  54.7070660  71.0364220  56.2445300  57.5075990  77.8123090
  56.8161410  56.7398190  77.8126730  56.2446840  57.8064750  76.9029700
  66.1025250  66.3266840  75.6668360  65.4836690  66.7824340  75.0962800
  66.9577030  66.4818300  75.2658060  65.2963500  62.3105830  77.2735400
  65.2271780  61.3695770  77.1124530  66.0583360  62.4007240  77.8457970
  57.4870170  52.9160350  79.5992020  57.3073010  52.0186100  79.8794780
  57.0850250  53.4632220  80.2738970  66.3268670  55.1176210  77.5004330
  66.7033490  54.2448090  77.3878000  66.2288180  55.4534910  76.6094770
  60.4573680  53.4901840  72.9621770  60.5640430  54.3905570  73.2690530
  59.5466040  53.4419810  72.6716420  70.1092790  52.6126650  74.4332670
  70.9302410  52.1223220  74.4758150  70.1426870  53.2024310  75.1864510
  58.1056840  55.4120850  78.2074360  58.7866950  55.6759220  78.8261760
  57.7904890  54.5721720  78.5412370  62.2981410  56.4588210  77.2946950
  62.8059630  56.9569180  77.9351970  62.8294650  55.6823410  77.1186310
  74.3992340  54.6293400  80.9976300  73.6944510  55.0175110  80.4791410
  74.6650260  55.3243690  81.5997230  60.5817510  51.0986770  81.5610370
  60.5835950  51.6159160  80.7556270  59.7521820  50.6216950  81.5380300
  66.9688600  61.2106080  73.0600270  66.3505870  61.6755530  72.4962990
  67.4811850  61.9033560  73.4769780  61.8320360  60.7381950  79.7383870
  61.4989740  61.3650870  80.3804940  62.0087040  61.2643830  78.9585540
  70.3454270  54.5527030  77.2060210  69.6409840  54.8411920  77.7863320
  70.7066430  55.3627140  76.8459770  60.2632840  52.8096730  79.5680820
  60.6049650  53.6538780  79.2734690  59.3248650  52.9580470  79.6846160
  61.0439460  62.7062750  81.5533050  61.6613460  63.3813830  81.2717500
  60.1832580  63.1150730  81.4620550  56.3371800  61.8962610  70.4339900
  55.9599780  62.3849710  69.7024800  56.5944870  62.5687890  71.0646430
  71.9617050  64.1702160  79.4687690  71.2780570  64.8401270  79.4604360
  72.5011340  64.3682810  78.7032550  73.4141190  53.9981820  77.5969420
  72.4666100  54.0320800  77.7284850  73.7391180  54.8120770  77.9818780
  63.9460730  50.2979000  75.8925410  64.2535710  49.7425890  75.1760910
  63.0161430  50.4323460  75.7098400  69.4975790  66.0146290  78.1832870
  69.5102950  65.6108580  77.3155130  68.9451010  66.7893580  78.0794300
  70.7921210  62.7362510  73.2723040  70.6817540  61.7936840  73.3972460
  70.7889460  63.0978150  74.1585800  68.8961230  60.9176130  79.5115480
  69.3130020  60.7036240  78.6768940  69.6201050  61.1748920  80.0824100
  66.3341490  58.3627830  72.6285530  65.4070770  58.2965210  72.8574000
  66.4866310  59.3007960  72.5140770  66.3210570  54.6344830  69.6252690
  65.3814240  54.7958790  69.7105150  66.6393830  55.3530510  69.0788680
  72.8423330  59.3163350  79.6031720  72.0141960  59.3856440  79.1281850
  73.4373810  59.9017660  79.1347550  70.3638780  59.9248130  73.1320780
  69.7451200  59.5867680  72.4847080  70.3463230  59.2807890  73.8399970
  69.8065340  56.1032670  80.5486590  69.3936520  56.9286380  80.8026580
  69.0741290  55.5177710  80.3562950  61.9398130  58.8892570  75.4105260
  61.5355130  58.1769820  74.9151160  62.0261250  58.5445810  76.2993300
  62.4079830  62.5760130  77.5744470  62.1108120  61.9705600  76.8952250
  63.3579650  62.6137440  77.4633830  60.6526750  55.6635780  79.1904300
  61.2041340  55.7731120  78.4157550  61.1670260  56.0373380  79.9059530
  70.4965440  66.1492000  81.2367570  70.0196000  66.9564190  81.0440180
  69.8127230  65.4970330  81.3893780  61.4998260  62.3141820  84.2252270
  60.6026790  62.5381790  84.4725670  61.5251130  62.4376760  83.2763670
  68.5403480  59.1634940  70.1393530  68.9796760  58.3257370  69.9931350
  69.2531900  59.7964340  70.2257670  60.3269480  59.1855140  82.8009640
  60.1877250  60.0577940  83.1697040  59.4450840  58.8427950  82.6557580
  66.6498860  64.1031010  74.1074770  67.0894770  64.8455340  73.6930160
  66.5885750  64.3457580  75.0313730  62.1249830  65.1276840  85.0094790
  62.0965260  65.5319790  84.1423220  61.9614800  64.1987200  84.8466390
  72.1220620  50.4177750  68.4534570  71.8093280  50.5104580  69.3533640
  72.8833090  50.9958780  68.4032000  58.6402760  57.7837550  72.9111910
  58.5200360  58.5099640  72.2993180  58.3303650  57.0140460  72.4339820
  74.0764650  65.9103940  86.3058960  74.5524370  66.3886830  86.9848040
  74.6971810  65.8421430  85.5804460  56.2788130  60.9552690  78.7180550
  56.3568550  61.0901460  77.7736270  56.8929810  60.2468580  78.9108670
  57.5235760  62.6552880  75.1286730  57.1163840  62.7967470  74.2740330
  58.4148770  62.3713040  74.9257940  73.4797900  63.1016790  83.4658970
  73.6060960  62.8628670  82.5476150  73.5219280  62.2701330  83.9381050
  67.3414640  66.8044790  82.0353780  67.8559310  66.7152800  82.8376210
  66.4983720  67.1504490  82.3281690  69.3169040  67.0900130  71.4637780
  69.1570180  66.8003070  72.3619610  69.1515750  66.3140260  70.9283010
  61.7957420  66.8698660  73.2409400  61.6199900  65.9534200  73.0277200
  60.9413160  67.2285950  73.4807200  69.0195170  64.5987690  70.0235780
  68.3260330  64.5964980  69.3638060  69.7618030  64.1747010  69.5929950
  68.5845100  66.2250400  74.0984270  69.0402050  65.4439780  74.4122890
  68.9237620  66.9357220  74.6425450  73.3321910  55.1549250  84.4308710
  72.7166180  55.6628920  83.9024170  73.0118330  54.2547580  84.3734650
  56.3347650  61.9966860  81.2575010  56.4978690  61.5272220  80.4394380
  56.8000100  61.4890420  81.9223850  61.1066420  51.1272620  76.2935580
  60.6634570  51.9082160  75.9620100  61.6651410  51.4502510  77.0006520
  65.3936230  53.9941140  81.8970900  64.9315600  54.2024160  82.7090840
  64.9914340  53.1800490  81.5941570  70.3940740  55.2150090  83.0267560
  69.5434330  54.9155840  83.3476630  70.2342530  55.4592100  82.1151380
  67.4890450  56.7151840  85.1266350  67.8143860  55.8815590  84.7868580
  68.2770780  57.2380360  85.2744680  64.2225240  50.7483320  71.1741410
  63.5979420  50.7443190  71.8994720  64.1355360  49.8814280  70.7777380
  63.1442320  51.6719950  78.1525180  63.4414650  52.5782780  78.0717200
  63.6927880  51.1838730  77.5384750  60.8980640  56.2506190  74.0216830
  60.6721560  56.0343360  74.9263450  60.1173170  56.6834650  73.6762800
  68.1278400  56.2569560  72.6207480  67.5287290  56.9805360  72.4371100
  68.6758010  56.1946340  71.8383930  63.3379850  57.1491770  84.6877100
  63.2423450  56.2086500  84.5377500  64.1811830  57.3706840  84.2925170
  66.7343270  54.8933100  74.6510760  67.1272840  55.2105300  73.8379450
  67.0960120  54.0144980  74.7655280  58.4690390  53.5605440  82.8410880
  58.0753780  54.4080650  83.0483660  57.7808790  52.9231810  83.0319520
  65.0435440  53.6440410  85.9107620  64.3533760  53.4512610  86.5453710
  65.7867740  53.9275050  86.4431920  55.7707440  51.4833900  76.8740960
  55.4820490  52.0536760  77.5865940  56.5153200  51.0038350  77.2372190
  55.9577670  55.4254020  68.0843680  55.8752340  56.3684780  68.2258670
  55.6060730  55.2828930  67.2056030  67.3198410  57.4838850  78.7461540
  66.5879530  57.9925660  79.0951640  66.9222750  56.6668830  78.4450320
  63.7575800  54.1593050  77.1514030  63.7611860  53.7183000  76.3018570
  64.6526920  54.4810380  77.2585850  59.6078180  54.0419540  76.1108240
  59.2678230  54.5194770  76.8675290  58.8455500  53.5884660  75.7509340
  63.8195950  55.1605130  70.1420790  63.9408770  55.1191610  71.0906610
  63.4344460  56.0229280  69.9867520  67.7824320  52.9372530  78.1584480
  67.7997060  53.3881180  79.0026330  67.5339900  52.0378170  78.3717920
  62.8317450  57.4706270  69.5404090  62.2634350  57.0224520  68.9140000
  63.5406450  57.8299050  69.0069240  71.2095070  50.3504710  83.9970860
  71.5340840  49.6194370  84.5228840  71.2451580  50.0318350  83.0951850
  57.9086630  61.3718290  83.4170820  57.5241420  60.7311960  84.0153780
  58.2198820  62.0754410  83.9865550  64.0583770  58.2194830  78.8979440
  64.4253900  57.7453400  79.6440780  63.8688830  59.0936400  79.2387780
  56.9224260  52.9638520  75.0272910  56.6371180  52.5994190  75.8651530
  56.8603120  52.2318980  74.4136050  61.8483140  57.2603470  81.2163650
  61.5440210  58.1395450  81.4414010  62.8029600  57.3203260  81.2521090
  60.3764930  61.4664460  71.8130500  59.6027190  60.9262080  71.6529220
  61.1059560  60.9471070  71.4748260  71.1352910  60.4629820  77.6056890
  71.8552030  60.9585110  77.2153000  70.9334730  59.7847710  76.9610760
  66.5962850  51.8567780  71.7486280  65.7827460  51.3580950  71.6731590
  66.4024800  52.6966030  71.3322630  66.5171710  60.5338880  83.4925890
  66.4509020  59.6134550  83.2383480  65.8876850  60.6314320  84.2070530
  69.3111240  56.2287430  70.0448440  70.1990860  56.5404660  69.8699780
  69.2816330  55.3559680  69.6529020  60.4202330  61.1344840  75.4509310
  60.9381000  60.3313100  75.3966200  59.9686350  61.0723980  76.2926140
  65.3071830  62.4011120  70.7236610  65.6487530  63.1453350  70.2279930
  64.4784540  62.7142240  71.0861440  57.9046870  58.1006210  82.3635010
  57.5461810  58.7660060  82.9508350  57.6101430  57.2689760  82.7347630
  61.1059990  58.5590450  85.2474560  60.8060130  58.7047630  84.3502380
  61.8771230  57.9995740  85.1547950  66.4488440  63.3559450  83.2429690
  66.4632980  62.4240410  83.0248600  65.7413540  63.4419210  83.8819460
  71.5825510  57.5399270  69.5128300  71.4989230  57.9713490  68.6624740
  72.3019700  57.9997620  69.9455120  72.6599650  59.9966790  82.5898270
  71.9347840  60.5895570  82.3927660  73.1875110  59.9890330  81.7911640
  72.6112760  64.3941530  72.2410430  71.9688920  63.7397150  72.5154150
  72.2243420  64.7996620  71.4651100  68.1899240  61.7226960  76.0882120
  68.5423060  61.1255090  75.4283490  67.3061570  61.3971190  76.2590370
  64.2762520  62.4824650  73.4952530  64.9633650  63.0293860  73.8760120
  63.4894940  63.0265380  73.5302140  56.4154920  58.0997470  68.9869610
  57.2849770  58.3822270  69.2705530  55.9245240  58.9133340  68.8718420
  63.5789730  59.4870680  73.1077890  64.0352510  60.2975930  73.3338080
  63.2277940  59.1693820  73.9396380  65.8822340  64.9977020  80.3370190
  66.5264560  65.2036400  81.0143610  66.2451780  64.2365420  79.8841040
  59.4801510  49.8308330  73.5800410  59.3516140  49.8226230  74.5285330
  58.6563530  50.1691420  73.2291420  67.1554420  63.0009370  79.0547640
  67.7976650  62.3002530  79.1679810  67.6803770  63.7807810  78.8744530
  71.0010140  63.2857990  68.7786780  70.7747720  62.5688430  69.3711420
  70.6106340  63.0370430  67.9408530  68.9292040  63.8004270  82.2583700
  69.2648280  64.3870960  82.9361620  68.0092380  63.6696980  82.4881490
  56.7826170  67.3124850  69.5531240  57.1423810  67.9114190  68.8988510
  56.6418510  67.8584740  70.3266270  56.4795440  51.5899450  83.0407110
  55.7653960  51.7896370  83.6459720  56.8990480  50.8139020  83.4121910
  70.5826390  61.2029930  70.4400940  70.2948090  61.6642620  71.2278820
  71.3778560  60.7427700  70.7085160  56.7668030  65.5779710  84.0273640
  56.8759150  64.6374450  83.8869030  56.1148590  65.8434460  83.3787370
  64.7580620  63.8495600  85.4271760  64.4377490  63.1304840  85.9717450
  64.0838980  64.5250670  85.5007820  62.7994790  64.6956050  70.3704910
  62.7904890  65.4285740  69.7549420  61.8793150  64.4487630  70.4631870
  58.4001430  59.9170940  71.1151670  57.7929380  60.6569840  71.1246970
  58.8750780  60.0070300  70.2889870  67.9734220  54.0821760  80.7908560
  68.3415040  53.2616970  81.1188130  67.1132420  54.1423650  81.2064210
  71.3396250  53.0378700  71.5996120  70.7109410  53.1424370  70.8854350
  70.8448170  53.2575480  72.3890000  65.7854390  64.7584290  69.0330100
  65.8866370  64.5548280  68.1032080  64.8856130  64.5042570  69.2377880
  63.3080280  55.3164650  73.0154000  62.5996430  55.7850990  73.4567610
  63.5924760  54.6586660  73.6499190  64.9336210  56.7361350  81.0146530
  65.4321460  57.2107170  81.6798380  65.0759160  55.8124870  81.2216560
  67.3395710  52.0415310  74.4549790  67.2163490  52.0601440  73.5059300
  68.2880270  52.0894250  74.5748190  64.4272500  67.2770610  73.7277770
  64.6814000  67.2392000  72.8057140  63.4784980  67.1503940  73.7206020
  61.5115300  53.6249730  70.3904710  62.3605830  54.0619880  70.3244900
  61.1446570  53.9369990  71.2176770  72.1403070  52.9529310  81.8574920
  71.6376670  53.6934710  82.1968730  72.9559730  53.3413310  81.5411710
  70.4325080  58.1962490  75.3036280  69.4915220  58.2112720  75.4783970
  70.7469150  57.4098450  75.7496580  60.4106720  59.8782090  68.8640240
  61.1769990  59.7663450  69.4265670  60.4881410  59.1820060  68.2117010
  59.1053480  57.3107160  69.5473130  59.1857070  56.3634670  69.6590530
  59.9973230  57.6414040  69.6533790  72.4350660  65.3671340  76.9790540
  72.5598080  66.1902510  77.4514350  73.3016220  65.1562070  76.6314690
  59.9068190  67.4602550  76.6507670  60.6430670  66.9118010  76.9216240
  60.2909110  68.3258560  76.5113660  56.7913670  63.5276120  72.5249180
  55.8653450  63.7697260  72.5154590  57.2570100  64.3550380  72.4033930
  58.9126470  66.6448620  85.8393250  59.7139200  66.9660670  86.2528650
  58.3978290  66.2844200  86.5613160  63.0170500  66.6332860  68.4733240
  63.8099110  66.9221690  68.0215030  62.4974850  66.2025030  67.7945720
  67.7491100  62.7528490  85.7868660  67.1429260  62.7760090  85.0464410
  67.4445210  62.0211530  86.3235910  69.1791470  66.4808780  84.3978070
  70.1313220  66.3966800  84.3478310  69.0319690  67.1450490  85.0711860
  72.0700670  65.8602990  69.8969980  71.7842180  65.4468130  69.0824160
  71.8720220  66.7890700  69.7770500  56.6324280  59.1322080  84.7829300
  57.1363300  58.5529360  85.3545530  55.8931700  59.4162310  85.3205670
  63.5347900  61.8536270  68.3375590  63.4298540  61.2388620  69.0636970
  63.3672120  61.3302160  67.5538600  63.6862220  60.5393070  84.3164820
  62.9207890  61.1078070  84.2319490  63.8678180  60.2469280  83.4233050
  66.7750630  60.9156300  68.9417580  66.2260730  61.3625600  69.5860320
  67.3969890  60.4105550  69.4655250  70.8285570  62.2698400  84.8739840
  71.5695040  62.6074160  84.3707300  70.0658250  62.4390460  84.3209610
  58.6647360  57.2751670  85.6779370  58.7052700  56.9765540  86.5864600
  59.5192860  57.6759280  85.5186890  62.4425750  59.8747220  70.8382880
  62.8642170  59.7087090  71.6814270  62.5676590  59.0647450  70.3438020
  60.6053170  55.8543770  83.6453860  60.0749630  55.3634720  83.0177200
  61.2741240  56.2827970  83.1111790  64.9553390  58.8984830  68.0859980
  65.4759050  58.1833850  67.7201130  65.6021790  59.5370700  68.3860490
  69.5031230  60.3213230  83.4095050  69.9172250  60.4758310  84.2585470
  68.5682230  60.4468450  83.5720830  69.9753400  57.6609390  85.4134200
  70.5574170  56.9061710  85.3254680  70.1515170  58.1916830  84.6365680
  61.0925470  52.8206140  83.7251150  60.9982340  52.2026890  83.0002020
  60.5122860  53.5472430  83.4981060  63.8586910  51.3779380  80.7578540
  63.4104210  51.4003640  79.9124090  63.2252110  50.9798400  81.3548840
  64.2646460  60.2733710  81.3790980  64.6834570  61.1166440  81.2067220
  63.3455090  60.4105750  81.1497760  66.6010360  58.0049890  82.7628820
  66.7206570  57.4091030  83.5023660  67.4604360  58.0419580  82.3430120
  68.9398260  58.5587080  81.3391330  68.4133480  59.0829700  80.7356470
  69.2829600  59.1914470  81.9701060  61.3384650  55.9480450  67.7841040
  61.1373710  55.0847810  68.1454380  61.1676700  55.8613810  66.8462640
  62.1153880  66.5786720  82.4948710  61.5774970  67.3032780  82.1757410
  62.3687840  66.1017060  81.7046050  63.3679130  54.5471240  84.0204640
  63.9578820  54.2387090  84.7082460  62.5499370  54.0750990  84.1764540
  68.1872560  54.1637050  84.2537660  67.4988080  53.5018590  84.1887650
  68.9078580  53.7175320  84.6986120  68.8172960  50.7588680  70.3127920
  69.0975250  49.9156580  70.6687340  68.0438690  50.9911790  70.8266670
  60.1367450  53.0481070  67.7718920  60.4393350  53.0548500  66.8638070
  60.8762040  52.6978930  68.2686580  64.9716090  67.8137930  82.7535360
  64.8974790  68.7173070  83.0607730  64.0694930  67.4949830  82.7257430
  63.3552380  51.9915690  68.7575120  63.0074380  51.3139680  68.1777570
  63.5565150  51.5305200  69.5718510  65.5201420  66.9796440  70.3761720
  66.4152210  67.3181410  70.3980480  65.5519050  66.2575850  69.7486000
  59.1597580  62.3523490  68.6048720  59.5972450  62.8953160  69.2606300
  59.6445310  61.5270440  68.6145060  56.3743380  65.1412520  76.0568980
  56.7046390  64.2733580  75.8247620  56.8034380  65.3471040  76.8873940
  60.9705300  63.4721530  73.7170950  60.6700840  63.3486500  74.6174860
  60.8642790  62.6130120  73.3086680  56.8633590  66.0083110  78.7950610
  56.4264580  66.1883910  79.6274760  57.4311270  66.7657730  78.6532330
  72.4995770  65.5100110  83.0827920  71.8997760  65.5692670  82.3391840
  72.6289670  64.5705090  83.2124770  73.7397220  63.2517930  68.4197630
  72.9090180  63.3194580  68.8904860  73.9169050  64.1422050  68.1164490
  73.1953680  59.9965410  70.9231830  73.9572590  60.5662060  71.0291520
  73.2108050  59.4292610  71.6940140  56.6958020  58.5203340  75.1539490
  56.0406860  58.2514980  74.5099190  57.5335970  58.4107820  74.7041470
  74.2013650  60.8515510  75.7673760  74.5722480  60.0682830  75.3609730
  74.8415580  61.5404610  75.5891060  71.1847410  62.2352090  81.1804080
  70.3707250  62.6649250  81.4429870  71.5921610  62.8470500  80.5673130
  73.2472850  60.2899780  68.0804350  73.5221690  61.1978660  67.9523570
  73.0583590  60.2262310  69.0166340  69.6448460  53.3144630  69.3757980
  70.0633340  53.1275610  68.5354640  69.3384520  52.4623680  69.6860910
  73.1438190  58.2268770  73.0733780  72.7681790  57.4596700  72.6415070
  72.4141310  58.6091470  73.5608710  57.7333950  58.9055910  79.6942830
  58.1006990  58.8183310  80.5738850  57.1644770  58.1422460  79.5949690
  72.5337810  57.3740290  82.7073300  72.3023900  57.1453040  81.8071250
  72.7942360  58.2939840  82.6618190  57.2849950  55.8165000  83.6001250
  56.3906000  55.7831760  83.9394960  57.8247500  56.0151790  84.3652500
  70.9725880  52.5996720  85.4853000  71.8496060  52.6080120  85.8687000
  70.9846720  51.8627560  84.8745350  55.9096100  55.7302270  71.0964820
  55.0060180  55.9932470  70.9216480  56.3936720  56.0013440  70.3164780
  72.4189150  56.4526260  76.3741020  72.9426630  55.9588910  75.7431190
  73.0048570  56.5876620  77.1188590  72.5978870  56.5366130  79.8960570
  71.6481580  56.5029670  80.0105560  72.7791880  57.4466240  79.6610340
  58.4523310  54.7867810  69.0059200  59.1615010  54.3651030  68.5206480
  57.7363250  54.8543040  68.3742550  58.0997470  50.8407140  68.0461850
  58.8225600  51.3816080  68.3643070  58.3721990  50.5670560  67.1703390
  71.9089120  55.7099610  72.3133430  72.4048240  55.4770480  73.0982310
  71.7105190  54.8711450  71.8971070  57.7889660  50.0913330  77.9484470
  58.4365850  49.5410710  77.5079630  58.2091500  50.3456480  78.7700280
  73.3376280  54.3460560  74.8471110  73.2275560  54.1916600  75.7853380
  74.0983870  53.8181500  74.6046520  71.6842000  50.2854690  81.3054110
  72.3214220  50.8988830  81.6713300  71.8316890  50.3215350  80.3603340
  74.2266550  52.1768480  68.0877250  75.1515860  52.0449660  67.8795540
  74.2042340  52.2561300  69.0413700  74.3005040  52.9479140  70.7133960
  73.5056540  52.8824260  71.2426870  74.5048320  53.8829780  70.7019310
  71.2423460  66.9870690  74.7072350  71.8382530  66.6655260  74.0306770
  71.5001610  66.5142510  75.4985620  57.5421660  50.2469000  80.6909790
  57.1936480  50.7032820  81.4567970  57.2109360  49.3526130  80.7732220
  59.1486030  63.4188600  84.8562980  59.1055660  63.0481510  85.7377440
  59.2797040  64.3566170  84.9964800  62.8492060  64.9748190  80.4572700
  62.6083420  65.2422750  79.5703220  63.7894700  65.1453920  80.5123560
  65.0546480  51.4380880  84.2129210  64.9935370  52.0302710  84.9624620
  65.9946860  51.3306840  84.0679470  67.6921040  51.0950940  83.8521500
  68.3061450  51.4130230  83.1902580  68.2370600  50.6099530  84.4717360
  74.1096220  66.9942570  81.2583340  73.6154500  67.3911440  80.5410470
  73.5009510  66.3691780  81.6520620  58.2142300  49.7745200  83.9660560
  58.7625290  49.5933250  83.2026670  58.2797610  48.9839310  84.5016870
  58.9874060  66.3650850  81.9760760  58.3934380  66.2335550  82.7150800
  58.9797900  65.5288990  81.5102860  68.4329080  49.6583080  80.1790790
  67.5588920  49.9918190  79.9763720  68.3239830  49.1856260  81.0042660
  69.3401060  51.8653950  81.5632510  69.0114420  51.0505710  81.1834240
  70.2883360  51.8223760  81.4398200  71.7935670  67.6365990  78.5370080
  71.3338640  68.3881800  78.1628100  71.1648130  66.9172460  78.4784880
  58.6186290  63.7309230  80.9268800  57.8920350  63.1114520  80.8594750
  58.6795440  64.1249840  80.0566880  62.2231390  65.9454230  77.7118210
  62.7396410  65.3341590  77.1866470  62.8728770  66.4483010  78.2029220
  64.9626890  66.8362720  78.5387190  65.2504700  66.5817020  77.6620200
  65.4750110  66.2840080  79.1292760  66.1803900  50.5752920  79.1183700
  65.3975690  51.0498420  79.3980460  65.8866830  49.6707750  79.0096880
  70.7324970  51.2776020  77.1632790  71.1733060  51.2221120  76.3154390
  70.4632560  52.1934030  77.2342970  72.5963540  50.9091260  75.1741610
  72.5351940  49.9652480  75.0272630  73.3755570  51.0171350  75.7195070
  56.9016290  67.0483620  74.1365560  56.7338330  66.4154300  74.8347450
  56.0350800  67.2543020  73.7859750  57.5244310  50.8800400  71.6397420
  58.2823670  50.9929280  71.0661450  57.0621480  51.7169600  71.5940850
  64.0658120  52.9939670  74.6299730  63.2532630  52.6196560  74.2895610
  64.5699760  52.2384750  74.9320920  68.5683100  49.6582120  75.8682800
  69.1712470  50.2302330  76.3431320  67.8276090  50.2221560  75.6456700
  71.7117700  50.0603680  71.1423080  71.9068330  50.9587130  71.4090510
  70.9247570  49.8290760  71.6356030  58.5078990  65.7416850  71.5815700
  57.9826610  66.1224880  70.8777660  58.4323570  66.3667620  72.3025410
  59.8969460  51.4064450  70.1799390  60.4262220  50.6194250  70.0507340
  60.5297780  52.0855640  70.4134920  62.0907300  51.1439590  73.2344780
  61.4610040  50.4426900  73.4014910  61.5512440  51.9043720  73.0177940
  65.0299250  67.7578820  85.9055390  65.9566560  67.5223090  85.9491350
  65.0149680  68.5850820  85.4241420  73.2644310  67.3004390  72.9029640
  73.4396500  66.6142130  72.2590560  72.5665880  67.8251440  72.5106310
  62.2162860  50.4223570  85.6697270  61.9347130  50.9257170  84.9058090
  62.5982560  49.6245320  85.3039400  61.1071960  67.6899230  70.4564950
  61.8390780  67.4058510  69.9088840  61.3665630  67.4512510  71.3464330
  60.2686750  63.8063960  70.4611280  59.6395630  64.2749060  71.0097110
  60.3834580  62.9613180  70.8957470  68.8178320  49.8377150  86.2477740
  68.7043770  50.1571760  87.1429260  69.6348060  50.2389660  85.9515020
  71.5976810  66.9848680  85.7296430  72.3902130  66.4897910  85.5222390
  71.8909960  67.6638820  86.3372040  67.7236470  57.8569620  56.6112480
  67.6430520  56.9424230  56.3404190  67.3100890  58.3536690  55.9052190
  65.8554510  59.6348640  58.4921750  65.0796610  59.1549080  58.7820320
  66.5067440  58.9554290  58.3177910  59.8720340  59.9468450  59.3697510
  59.0405220  59.6917160  59.7694020  60.4801320  60.0179220  60.1055430
  69.8761940  64.0408830  57.2720880  69.4143470  63.2696070  57.6008050
  70.6887490  64.0674900  57.7773330  59.8521600  63.9808540  59.5655530
  60.1549640  63.0906280  59.3865750  60.5965190  64.5378760  59.3377780
  58.2812290  54.9070340  53.1539900  57.3928990  55.2486310  53.0519780
  58.5653480  54.7070660  52.2620730  56.2445300  57.5075990  59.0379600
  56.8161410  56.7398190  59.0383240  56.2446840  57.8064750  58.1286210
  66.1025250  66.3266840  56.8924870  65.4836690  66.7824340  56.3219310
  66.9577030  66.4818300  56.4914570  65.2963500  62.3105830  58.4991910
  65.2271780  61.3695770  58.3381040  66.0583360  62.4007240  59.0714480
  57.4870170  52.9160350  60.8248530  57.3073010  52.0186100  61.1051290
  57.0850250  53.4632220  61.4995480  66.3268670  55.1176210  58.7260840
  66.7033490  54.2448090  58.6134510  66.2288180  55.4534910  57.8351280
  60.4573680  53.4901840  54.1878280  60.5640430  54.3905570  54.4947040
  59.5466040  53.4419810  53.8972930  70.1092790  52.6126650  55.6589180
  70.9302410  52.1223220  55.7014660  70.1426870  53.2024310  56.4121020
  58.1056840  55.4120850  59.4330870  58.7866950  55.6759220  60.0518270
  57.7904890  54.5721720  59.7668880  62.2981410  56.4588210  58.5203460
  62.8059630  56.9569180  59.1608480  62.8294650  55.6823410  58.3442820
  74.3992340  54.6293400  62.2232810  73.6944510  55.0175110  61.7047920
  74.6650260  55.3243690  62.8253740  60.5817510  51.0986770  62.7866880
  60.5835950  51.6159160  61.9812780  59.7521820  50.6216950  62.7636810
  66.9688600  61.2106080  54.2856780  66.3505870  61.6755530  53.7219500
  67.4811850  61.9033560  54.7026290  61.8320360  60.7381950  60.9640380
  61.4989740  61.3650870  61.6061450  62.0087040  61.2643830  60.1842050
  70.3454270  54.5527030  58.4316720  69.6409840  54.8411920  59.0119830
  70.7066430  55.3627140  58.0716280  60.2632840  52.8096730  60.7937330
  60.6049650  53.6538780  60.4991200  59.3248650  52.9580470  60.9102670
  61.0439460  62.7062750  62.7789560  61.6613460  63.3813830  62.4974010
  60.1832580  63.1150730  62.6877060  56.3371800  61.8962610  51.6596410
  55.9599780  62.3849710  50.9281310  56.5944870  62.5687890  52.2902940
  71.9617050  64.1702160  60.6944200  71.2780570  64.8401270  60.6860870
  72.5011340  64.3682810  59.9289060  73.4141190  53.9981820  58.8225930
  72.4666100  54.0320800  58.9541360  73.7391180  54.8120770  59.2075290
  63.9460730  50.2979000  57.1181920  64.2535710  49.7425890  56.4017420
  63.0161430  50.4323460  56.9354910  69.4975790  66.0146290  59.4089380
  69.5102950  65.6108580  58.5411640  68.9451010  66.7893580  59.3050810
  70.7921210  62.7362510  54.4979550  70.6817540  61.7936840  54.6228970
  70.7889460  63.0978150  55.3842310  68.8961230  60.9176130  60.7371990
  69.3130020  60.7036240  59.9025450  69.6201050  61.1748920  61.3080610
  66.3341490  58.3627830  53.8542040  65.4070770  58.2965210  54.0830510
  66.4866310  59.3007960  53.7397280  66.3210570  54.6344830  50.8509200
  65.3814240  54.7958790  50.9361660  66.6393830  55.3530510  50.3045190
  72.8423330  59.3163350  60.8288230  72.0141960  59.3856440  60.3538360
  73.4373810  59.9017660  60.3604060  70.3638780  59.9248130  54.3577290
  69.7451200  59.5867680  53.7103590  70.3463230  59.2807890  55.0656480
  69.8065340  56.1032670  61.7743100  69.3936520  56.9286380  62.0283090
  69.0741290  55.5177710  61.5819460  61.9398130  58.8892570  56.6361770
  61.5355130  58.1769820  56.1407670  62.0261250  58.5445810  57.5249810
  62.4079830  62.5760130  58.8000980  62.1108120  61.9705600  58.1208760
  63.3579650  62.6137440  58.6890340  60.6526750  55.6635780  60.4160810
  61.2041340  55.7731120  59.6414060  61.1670260  56.0373380  61.1316040
  70.4965440  66.1492000  62.4624080  70.0196000  66.9564190  62.2696690
  69.8127230  65.4970330  62.6150290  61.4998260  62.3141820  65.4508780
  60.6026790  62.5381790  65.6982180  61.5251130  62.4376760  64.5020180
  68.5403480  59.1634940  51.3650040  68.9796760  58.3257370  51.2187860
  69.2531900  59.7964340  51.4514180  60.3269480  59.1855140  64.0266150
  60.1877250  60.0577940  64.3953550  59.4450840  58.8427950  63.8814090
  66.6498860  64.1031010  55.3331280  67.0894770  64.8455340  54.9186670
  66.5885750  64.3457580  56.2570240  72.1220620  50.4177750  49.6791080
  71.8093280  50.5104580  50.5790150  72.8833090  50.9958780  49.6288510
  58.6402760  57.7837550  54.1368420  58.5200360  58.5099640  53.5249690
  58.3303650  57.0140460  53.6596330  74.0764650  65.9103940  67.5315470
  74.5524370  66.3886830  68.2104550  74.6971810  65.8421430  66.8060970
  56.2788130  60.9552690  59.9437060  56.3568550  61.0901460  58.9992780
  56.8929810  60.2468580  60.1365180  57.5235760  62.6552880  56.3543240
  57.1163840  62.7967470  55.4996840  58.4148770  62.3713040  56.1514450
  73.4797900  63.1016790  64.6915480  73.6060960  62.8628670  63.7732660
  73.5219280  62.2701330  65.1637560  67.3414640  66.8044790  63.2610290
  67.8559310  66.7152800  64.0632720  66.4983720  67.1504490  63.5538200
  69.3169040  67.0900130  52.6894290  69.1570180  66.8003070  53.5876120
  69.1515750  66.3140260  52.1539520  61.7957420  66.8698660  54.4665910
  61.6199900  65.9534200  54.2533710  60.9413160  67.2285950  54.7063710
  69.0195170  64.5987690  51.2492290  68.3260330  64.5964980  50.5894570
  69.7618030  64.1747010  50.8186460  68.5845100  66.2250400  55.3240780
  69.0402050  65.4439780  55.6379400  68.9237620  66.9357220  55.8681960
  73.3321910  55.1549250  65.6565220  72.7166180  55.6628920  65.1280680
  73.0118330  54.2547580  65.5991160  56.3347650  61.9966860  62.4831520
  56.4978690  61.5272220  61.6650890  56.8000100  61.4890420  63.1480360
  61.1066420  51.1272620  57.5192090  60.6634570  51.9082160  57.1876610
  61.6651410  51.4502510  58.2263030  65.3936230  53.9941140  63.1227410
  64.9315600  54.2024160  63.9347350  64.9914340  53.1800490  62.8198080
  70.3940740  55.2150090  64.2524070  69.5434330  54.9155840  64.5733140
  70.2342530  55.4592100  63.3407890  67.4890450  56.7151840  66.3522860
  67.8143860  55.8815590  66.0125090  68.2770780  57.2380360  66.5001190
  64.2225240  50.7483320  52.3997920  63.5979420  50.7443190  53.1251230
  64.1355360  49.8814280  52.0033890  63.1442320  51.6719950  59.3781690
  63.4414650  52.5782780  59.2973710  63.6927880  51.1838730  58.7641260
  60.8980640  56.2506190  55.2473340  60.6721560  56.0343360  56.1519960
  60.1173170  56.6834650  54.9019310  68.1278400  56.2569560  53.8463990
  67.5287290  56.9805360  53.6627610  68.6758010  56.1946340  53.0640440
  63.3379850  57.1491770  65.9133610  63.2423450  56.2086500  65.7634010
  64.1811830  57.3706840  65.5181680  66.7343270  54.8933100  55.8767270
  67.1272840  55.2105300  55.0635960  67.0960120  54.0144980  55.9911790
  58.4690390  53.5605440  64.0667390  58.0753780  54.4080650  64.2740170
  57.7808790  52.9231810  64.2576030  65.0435440  53.6440410  67.1364130
  64.3533760  53.4512610  67.7710220  65.7867740  53.9275050  67.6688430
  55.7707440  51.4833900  58.0997470  55.4820490  52.0536760  58.8122450
  56.5153200  51.0038350  58.4628700  55.9577670  55.4254020  49.3100190
  55.8752340  56.3684780  49.4515180  55.6060730  55.2828930  48.4312540
  67.3198410  57.4838850  59.9718050  66.5879530  57.9925660  60.3208150
  66.9222750  56.6668830  59.6706830  63.7575800  54.1593050  58.3770540
  63.7611860  53.7183000  57.5275080  64.6526920  54.4810380  58.4842360
  59.6078180  54.0419540  57.3364750  59.2678230  54.5194770  58.0931800
  58.8455500  53.5884660  56.9765850  63.8195950  55.1605130  51.3677300
  63.9408770  55.1191610  52.3163120  63.4344460  56.0229280  51.2124030
  67.7824320  52.9372530  59.3840990  67.7997060  53.3881180  60.2282840
  67.5339900  52.0378170  59.5974430  62.8317450  57.4706270  50.7660600
  62.2634350  57.0224520  50.1396510  63.5406450  57.8299050  50.2325750
  71.2095070  50.3504710  65.2227370  71.5340840  49.6194370  65.7485350
  71.2451580  50.0318350  64.3208360  57.9086630  61.3718290  64.6427330
  57.5241420  60.7311960  65.2410290  58.2198820  62.0754410  65.2122060
  64.0583770  58.2194830  60.1235950  64.4253900  57.7453400  60.8697290
  63.8688830  59.0936400  60.4644290  56.9224260  52.9638520  56.2529420
  56.6371180  52.5994190  57.0908040  56.8603120  52.2318980  55.6392560
  61.8483140  57.2603470  62.4420160  61.5440210  58.1395450  62.6670520
  62.8029600  57.3203260  62.4777600  60.3764930  61.4664460  53.0387010
  59.6027190  60.9262080  52.8785730  61.1059560  60.9471070  52.7004770
  71.1352910  60.4629820  58.8313400  71.8552030  60.9585110  58.4409510
  70.9334730  59.7847710  58.1867270  66.5962850  51.8567780  52.9742790
  65.7827460  51.3580950  52.8988100  66.4024800  52.6966030  52.5579140
  66.5171710  60.5338880  64.7182400  66.4509020  59.6134550  64.4639990
  65.8876850  60.6314320  65.4327040  69.3111240  56.2287430  51.2704950
  70.1990860  56.5404660  51.0956290  69.2816330  55.3559680  50.8785530
  60.4202330  61.1344840  56.6765820  60.9381000  60.3313100  56.6222710
  59.9686350  61.0723980  57.5182650  65.3071830  62.4011120  51.9493120
  65.6487530  63.1453350  51.4536440  64.4784540  62.7142240  52.3117950
  57.9046870  58.1006210  63.5891520  57.5461810  58.7660060  64.1764860
  57.6101430  57.2689760  63.9604140  61.1059990  58.5590450  66.4731070
  60.8060130  58.7047630  65.5758890  61.8771230  57.9995740  66.3804460
  66.4488440  63.3559450  64.4686200  66.4632980  62.4240410  64.2505110
  65.7413540  63.4419210  65.1075970  71.5825510  57.5399270  50.7384810
  71.4989230  57.9713490  49.8881250  72.3019700  57.9997620  51.1711630
  72.6599650  59.9966790  63.8154780  71.9347840  60.5895570  63.6184170
  73.1875110  59.9890330  63.0168150  72.6112760  64.3941530  53.4666940
  71.9688920  63.7397150  53.7410660  72.2243420  64.7996620  52.6907610
  68.1899240  61.7226960  57.3138630  68.5423060  61.1255090  56.6540000
  67.3061570  61.3971190  57.4846880  64.2762520  62.4824650  54.7209040
  64.9633650  63.0293860  55.1016630  63.4894940  63.0265380  54.7558650
  56.4154920  58.0997470  50.2126120  57.2849770  58.3822270  50.4962040
  55.9245240  58.9133340  50.0974930  63.5789730  59.4870680  54.3334400
  64.0352510  60.2975930  54.5594590  63.2277940  59.1693820  55.1652890
  65.8822340  64.9977020  61.5626700  66.5264560  65.2036400  62.2400120
  66.2451780  64.2365420  61.1097550  59.4801510  49.8308330  54.8056920
  59.3516140  49.8226230  55.7541840  58.6563530  50.1691420  54.4547930
  67.1554420  63.0009370  60.2804150  67.7976650  62.3002530  60.3936320
  67.6803770  63.7807810  60.1001040  71.0010140  63.2857990  50.0043290
  70.7747720  62.5688430  50.5967930  70.6106340  63.0370430  49.1665040
  68.9292040  63.8004270  63.4840210  69.2648280  64.3870960  64.1618130
  68.0092380  63.6696980  63.7138000  56.7826170  67.3124850  50.7787750
  57.1423810  67.9114190  50.1245020  56.6418510  67.8584740  51.5522780
  56.4795440  51.5899450  64.2663620  55.7653960  51.7896370  64.8716230
  56.8990480  50.8139020  64.6378420  70.5826390  61.2029930  51.6657450
  70.2948090  61.6642620  52.4535330  71.3778560  60.7427700  51.9341670
  64.7580620  63.8495600  66.6528270  64.4377490  63.1304840  67.1973960
  64.0838980  64.5250670  66.7264330  62.7994790  64.6956050  51.5961420
  62.7904890  65.4285740  50.9805930  61.8793150  64.4487630  51.6888380
  58.4001430  59.9170940  52.3408180  57.7929380  60.6569840  52.3503480
  58.8750780  60.0070300  51.5146380  67.9734220  54.0821760  62.0165070
  68.3415040  53.2616970  62.3444640  67.1132420  54.1423650  62.4320720
  71.3396250  53.0378700  52.8252630  70.7109410  53.1424370  52.1110860
  70.8448170  53.2575480  53.6146510  65.7854390  64.7584290  50.2586610
  65.8866370  64.5548280  49.3288590  64.8856130  64.5042570  50.4634390
  63.3080280  55.3164650  54.2410510  62.5996430  55.7850990  54.6824120
  63.5924760  54.6586660  54.8755700  64.9336210  56.7361350  62.2403040
  65.4321460  57.2107170  62.9054890  65.0759160  55.8124870  62.4473070
  67.3395710  52.0415310  55.6806300  67.2163490  52.0601440  54.7315810
  68.2880270  52.0894250  55.8004700  64.4272500  67.2770610  54.9534280
  64.6814000  67.2392000  54.0313650  63.4784980  67.1503940  54.9462530
  61.5115300  53.6249730  51.6161220  62.3605830  54.0619880  51.5501410
  61.1446570  53.9369990  52.4433280  72.1403070  52.9529310  63.0831430
  71.6376670  53.6934710  63.4225240  72.9559730  53.3413310  62.7668220
  70.4325080  58.1962490  56.5292790  69.4915220  58.2112720  56.7040480
  70.7469150  57.4098450  56.9753090  60.4106720  59.8782090  50.0896750
  61.1769990  59.7663450  50.6522180  60.4881410  59.1820060  49.4373520
  59.1053480  57.3107160  50.7729640  59.1857070  56.3634670  50.8847040
  59.9973230  57.6414040  50.8790300  72.4350660  65.3671340  58.2047050
  72.5598080  66.1902510  58.6770860  73.3016220  65.1562070  57.8571200
  59.9068190  67.4602550  57.8764180  60.6430670  66.9118010  58.1472750
  60.2909110  68.3258560  57.7370170  56.7913670  63.5276120  53.7505690
  55.8653450  63.7697260  53.7411100  57.2570100  64.3550380  53.6290440
  63.0170500  66.6332860  49.6989750  63.8099110  66.9221690  49.2471540
  62.4974850  66.2025030  49.0202230  67.7491100  62.7528490  67.0125170
  67.1429260  62.7760090  66.2720920  67.4445210  62.0211530  67.5492420
  69.1791470  66.4808780  65.6234580  70.1313220  66.3966800  65.5734820
  69.0319690  67.1450490  66.2968370  72.0700670  65.8602990  51.1226490
  71.7842180  65.4468130  50.3080670  71.8720220  66.7890700  51.0027010
  56.6324280  59.1322080  66.0085810  57.1363300  58.5529360  66.5802040
  55.8931700  59.4162310  66.5462180  63.5347900  61.8536270  49.5632100
  63.4298540  61.2388620  50.2893480  63.3672120  61.3302160  48.7795110
  63.6862220  60.5393070  65.5421330  62.9207890  61.1078070  65.4576000
  63.8678180  60.2469280  64.6489560  66.7750630  60.9156300  50.1674090
  66.2260730  61.3625600  50.8116830  67.3969890  60.4105550  50.6911760
  70.8285570  62.2698400  66.0996350  71.5695040  62.6074160  65.5963810
  70.0658250  62.4390460  65.5466120  58.6647360  57.2751670  66.9035880
  58.7052700  56.9765540  67.8121110  59.5192860  57.6759280  66.7443400
  62.4425750  59.8747220  52.0639390  62.8642170  59.7087090  52.9070780
  62.5676590  59.0647450  51.5694530  60.6053170  55.8543770  64.8710370
  60.0749630  55.3634720  64.2433710  61.2741240  56.2827970  64.3368300
  64.9553390  58.8984830  49.3116490  65.4759050  58.1833850  48.9457640
  65.6021790  59.5370700  49.6117000  69.5031230  60.3213230  64.6351560
  69.9172250  60.4758310  65.4841980  68.5682230  60.4468450  64.7977340
  69.9753400  57.6609390  66.6390710  70.5574170  56.9061710  66.5511190
  70.1515170  58.1916830  65.8622190  61.0925470  52.8206140  64.9507660
  60.9982340  52.2026890  64.2258530  60.5122860  53.5472430  64.7237570
  63.8586910  51.3779380  61.9835050  63.4104210  51.4003640  61.1380600
  63.2252110  50.9798400  62.5805350  64.2646460  60.2733710  62.6047490
  64.6834570  61.1166440  62.4323730  63.3455090  60.4105750  62.3754270
  66.6010360  58.0049890  63.9885330  66.7206570  57.4091030  64.7280170
  67.4604360  58.0419580  63.5686630  68.9398260  58.5587080  62.5647840
  68.4133480  59.0829700  61.9612980  69.2829600  59.1914470  63.1957570
  61.3384650  55.9480450  49.0097550  61.1373710  55.0847810  49.3710890
  61.1676700  55.8613810  48.0719150  63.3679130  54.5471240  65.2461150
  63.9578820  54.2387090  65.9338970  62.5499370  54.0750990  65.4021050
  68.1872560  54.1637050  65.4794170  67.4988080  53.5018590  65.4144160
  68.9078580  53.7175320  65.9242630  68.8172960  50.7588680  51.5384430
  69.0975250  49.9156580  51.8943850  68.0438690  50.9911790  52.0523180
  60.1367450  53.0481070  48.9975430  60.4393350  53.0548500  48.0894580
  60.8762040  52.6978930  49.4943090  64.9716090  67.8137930  63.9791870
  64.8974790  68.7173070  64.2864240  64.0694930  67.4949830  63.9513940
  63.3552380  51.9915690  49.9831630  63.0074380  51.3139680  49.4034080
  63.5565150  51.5305200  50.7975020  65.5201420  66.9796440  51.6018230
  66.4152210  67.3181410  51.6236990  65.5519050  66.2575850  50.9742510
  59.1597580  62.3523490  49.8305230  59.5972450  62.8953160  50.4862810
  59.6445310  61.5270440  49.8401570  56.3743380  65.1412520  57.2825490
  56.7046390  64.2733580  57.0504130  56.8034380  65.3471040  58.1130450
  60.9705300  63.4721530  54.9427460  60.6700840  63.3486500  55.8431370
  60.8642790  62.6130120  54.5343190  56.8633590  66.0083110  60.0207120
  56.4264580  66.1883910  60.8531270  57.4311270  66.7657730  59.8788840
  72.4995770  65.5100110  64.3084430  71.8997760  65.5692670  63.5648350
  72.6289670  64.5705090  64.4381280  73.7397220  63.2517930  49.6454140
  72.9090180  63.3194580  50.1161370  73.9169050  64.1422050  49.3421000
  73.1953680  59.9965410  52.1488340  73.9572590  60.5662060  52.2548030
  73.2108050  59.4292610  52.9196650  56.6958020  58.5203340  56.3796000
  56.0406860  58.2514980  55.7355700  57.5335970  58.4107820  55.9297980
  74.2013650  60.8515510  56.9930270  74.5722480  60.0682830  56.5866240
  74.8415580  61.5404610  56.8147570  71.1847410  62.2352090  62.4060590
  70.3707250  62.6649250  62.6686380  71.5921610  62.8470500  61.7929640
  73.2472850  60.2899780  49.3060860  73.5221690  61.1978660  49.1780080
  73.0583590  60.2262310  50.2422850  69.6448460  53.3144630  50.6014490
  70.0633340  53.1275610  49.7611150  69.3384520  52.4623680  50.9117420
  73.1438190  58.2268770  54.2990290  72.7681790  57.4596700  53.8671580
  72.4141310  58.6091470  54.7865220  57.7333950  58.9055910  60.9199340
  58.1006990  58.8183310  61.7995360  57.1644770  58.1422460  60.8206200
  72.5337810  57.3740290  63.9329810  72.3023900  57.1453040  63.0327760
  72.7942360  58.2939840  63.8874700  57.2849950  55.8165000  64.8257760
  56.3906000  55.7831760  65.1651470  57.8247500  56.0151790  65.5909010
  70.9725880  52.5996720  66.7109510  71.8496060  52.6080120  67.0943510
  70.9846720  51.8627560  66.1001860  55.9096100  55.7302270  52.3221330
  55.0060180  55.9932470  52.1472990  56.3936720  56.0013440  51.5421290
  72.4189150  56.4526260  57.5997530  72.9426630  55.9588910  56.9687700
  73.0048570  56.5876620  58.3445100  72.5978870  56.5366130  61.1217080
  71.6481580  56.5029670  61.2362070  72.7791880  57.4466240  60.8866850
  58.4523310  54.7867810  50.2315710  59.1615010  54.3651030  49.7462990
  57.7363250  54.8543040  49.5999060  58.0997470  50.8407140  49.2718360
  58.8225600  51.3816080  49.5899580  58.3721990  50.5670560  48.3959900
  71.9089120  55.7099610  53.5389940  72.4048240  55.4770480  54.3238820
  71.7105190  54.8711450  53.1227580  57.7889660  50.0913330  59.1740980
  58.4365850  49.5410710  58.7336140  58.2091500  50.3456480  59.9956790
  73.3376280  54.3460560  56.0727620  73.2275560  54.1916600  57.0109890
  74.0983870  53.8181500  55.8303030  71.6842000  50.2854690  62.5310620
  72.3214220  50.8988830  62.8969810  71.8316890  50.3215350  61.5859850
  74.2266550  52.1768480  49.3133760  75.1515860  52.0449660  49.1052050
  74.2042340  52.2561300  50.2670210  74.3005040  52.9479140  51.9390470
  73.5056540  52.8824260  52.4683380  74.5048320  53.8829780  51.9275820
  71.2423460  66.9870690  55.9328860  71.8382530  66.6655260  55.2563280
  71.5001610  66.5142510  56.7242130  57.5421660  50.2469000  61.9166300
  57.1936480  50.7032820  62.6824480  57.2109360  49.3526130  61.9988730
  62.8492060  64.9748190  61.6829210  62.6083420  65.2422750  60.7959730
  63.7894700  65.1453920  61.7380070  65.0546480  51.4380880  65.4385720
  64.9935370  52.0302710  66.1881130  65.9946860  51.3306840  65.2935980
  67.6921040  51.0950940  65.0778010  68.3061450  51.4130230  64.4159090
  68.2370600  50.6099530  65.6973870  74.1096220  66.9942570  62.4839850
  73.6154500  67.3911440  61.7666980  73.5009510  66.3691780  62.8777130
  58.2142300  49.7745200  65.1917070  58.7625290  49.5933250  64.4283180
  58.2797610  48.9839310  65.7273380  68.4329080  49.6583080  61.4047300
  67.5588920  49.9918190  61.2020230  68.3239830  49.1856260  62.2299170
  69.3401060  51.8653950  62.7889020  69.0114420  51.0505710  62.4090750
  70.2883360  51.8223760  62.6654710  71.7935670  67.6365990  59.7626590
  71.3338640  68.3881800  59.3884610  71.1648130  66.9172460  59.7041390
  58.6186290  63.7309230  62.1525310  57.8920350  63.1114520  62.0851260
  58.6795440  64.1249840  61.2823390  62.2231390  65.9454230  58.9374720
  62.7396410  65.3341590  58.4122980  62.8728770  66.4483010  59.4285730
  64.9626890  66.8362720  59.7643700  65.2504700  66.5817020  58.8876710
  65.4750110  66.2840080  60.3549270  66.1803900  50.5752920  60.3440210
  65.3975690  51.0498420  60.6236970  65.8866830  49.6707750  60.2353390
  70.7324970  51.2776020  58.3889300  71.1733060  51.2221120  57.5410900
  70.4632560  52.1934030  58.4599480  72.5963540  50.9091260  56.3998120
  72.5351940  49.9652480  56.2529140  73.3755570  51.0171350  56.9451580
  56.9016290  67.0483620  55.3622070  56.7338330  66.4154300  56.0603960
  56.0350800  67.2543020  55.0116260  57.5244310  50.8800400  52.8653930
  58.2823670  50.9929280  52.2917960  57.0621480  51.7169600  52.8197360
  64.0658120  52.9939670  55.8556240  63.2532630  52.6196560  55.5152120
  64.5699760  52.2384750  56.1577430  68.5683100  49.6582120  57.0939310
  69.1712470  50.2302330  57.5687830  67.8276090  50.2221560  56.8713210
  71.7117700  50.0603680  52.3679590  71.9068330  50.9587130  52.6347020
  70.9247570  49.8290760  52.8612540  58.5078990  65.7416850  52.8072210
  57.9826610  66.1224880  52.1034170  58.4323570  66.3667620  53.5281920
  59.8969460  51.4064450  51.4055900  60.4262220  50.6194250  51.2763850
  60.5297780  52.0855640  51.6391430  62.0907300  51.1439590  54.4601290
  61.4610040  50.4426900  54.6271420  61.5512440  51.9043720  54.2434450
  65.0299250  67.7578820  67.1311900  65.9566560  67.5223090  67.1747860
  65.0149680  68.5850820  66.6497930  73.2644310  67.3004390  54.1286150
  73.4396500  66.6142130  53.4847070  72.5665880  67.8251440  53.7362820
  62.2162860  50.4223570  66.8953780  61.9347130  50.9257170  66.1314600
  62.5982560  49.6245320  66.5295910  61.1071960  67.6899230  51.6821460
  61.8390780  67.4058510  51.1345350  61.3665630  67.4512510  52.5720840
  60.2686750  63.8063960  51.6867790  59.6395630  64.2749060  52.2353620
  60.3834580  62.9613180  52.1213980  68.8178320  49.8377150  67.4734250
  68.7043770  50.1571760  68.3685770  69.6348060  50.2389660  67.1771530
  71.5976810  66.9848680  66.9552940  72.3902130  66.4897910  66.7478900
  71.8909960  67.6638820  67.5628550  67.7236470  57.8569620  37.8368990
  67.6430520  56.9424230  37.5660700  67.3100890  58.3536690  37.1308700
  65.8554510  59.6348640  39.7178260  65.0796610  59.1549080  40.0076830
  66.5067440  58.9554290  39.5434420  59.8720340  59.9468450  40.5954020
  59.0405220  59.6917160  40.9950530  60.4801320  60.0179220  41.3311940
  69.8761940  64.0408830  38.4977390  69.4143470  63.2696070  38.8264560
  70.6887490  64.0674900  39.0029840  59.8521600  63.9808540  40.7912040
  60.1549640  63.0906280  40.6122260  60.5965190  64.5378760  40.5634290
  58.2812290  54.9070340  34.3796410  57.3928990  55.2486310  34.2776290
  58.5653480  54.7070660  33.4877240  56.2445300  57.5075990  40.2636110
  56.8161410  56.7398190  40.2639750  56.2446840  57.8064750  39.3542720
  66.1025250  66.3266840  38.1181380  65.4836690  66.7824340  37.5475820
  66.9577030  66.4818300  37.7171080  65.2963500  62.3105830  39.7248420
  65.2271780  61.3695770  39.5637550  66.0583360  62.4007240  40.2970990
  57.4870170  52.9160350  42.0505040  57.3073010  52.0186100  42.3307800
  57.0850250  53.4632220  42.7251990  66.3268670  55.1176210  39.9517350
  66.7033490  54.2448090  39.8391020  66.2288180  55.4534910  39.0607790
  60.4573680  53.4901840  35.4134790  60.5640430  54.3905570  35.7203550
  59.5466040  53.4419810  35.1229440  70.1092790  52.6126650  36.8845690
  70.9302410  52.1223220  36.9271170  70.1426870  53.2024310  37.6377530
  58.1056840  55.4120850  40.6587380  58.7866950  55.6759220  41.2774780
  57.7904890  54.5721720  40.9925390  62.2981410  56.4588210  39.7459970
  62.8059630  56.9569180  40.3864990  62.8294650  55.6823410  39.5699330
  74.3992340  54.6293400  43.4489320  73.6944510  55.0175110  42.9304430
  74.6650260  55.3243690  44.0510250  60.5817510  51.0986770  44.0123390
  60.5835950  51.6159160  43.2069290  59.7521820  50.6216950  43.9893320
  66.9688600  61.2106080  35.5113290  66.3505870  61.6755530  34.9476010
  67.4811850  61.9033560  35.9282800  61.8320360  60.7381950  42.1896890
  61.4989740  61.3650870  42.8317960  62.0087040  61.2643830  41.4098560
  70.3454270  54.5527030  39.6573230  69.6409840  54.8411920  40.2376340
  70.7066430  55.3627140  39.2972790  60.2632840  52.8096730  42.0193840
  60.6049650  53.6538780  41.7247710  59.3248650  52.9580470  42.1359180
  61.0439460  62.7062750  44.0046070  61.6613460  63.3813830  43.7230520
  60.1832580  63.1150730  43.9133570  56.3371800  61.8962610  32.8852920
  55.9599780  62.3849710  32.1537820  56.5944870  62.5687890  33.5159450
  71.9617050  64.1702160  41.9200710  71.2780570  64.8401270  41.9117380
  72.5011340  64.3682810  41.1545570  73.4141190  53.9981820  40.0482440
  72.4666100  54.0320800  40.1797870  73.7391180  54.8120770  40.4331800
  63.9460730  50.2979000  38.3438430  64.2535710  49.7425890  37.6273930
  63.0161430  50.4323460  38.1611420  69.4975790  66.0146290  40.6345890
  69.5102950  65.6108580  39.7668150  68.9451010  66.7893580  40.5307320
  70.7921210  62.7362510  35.7236060  70.6817540  61.7936840  35.8485480
  70.7889460  63.0978150  36.6098820  68.8961230  60.9176130  41.9628500
  69.3130020  60.7036240  41.1281960  69.6201050  61.1748920  42.5337120
  66.3341490  58.3627830  35.0798550  65.4070770  58.2965210  35.3087020
  66.4866310  59.3007960  34.9653790  66.3210570  54.6344830  32.0765710
  65.3814240  54.7958790  32.1618170  66.6393830  55.3530510  31.5301700
  72.8423330  59.3163350  42.0544740  72.0141960  59.3856440  41.5794870
  73.4373810  59.9017660  41.5860570  70.3638780  59.9248130  35.5833800
  69.7451200  59.5867680  34.9360100  70.3463230  59.2807890  36.2912990
  69.8065340  56.1032670  42.9999610  69.3936520  56.9286380  43.2539600
  69.0741290  55.5177710  42.8075970  61.9398130  58.8892570  37.8618280
  61.5355130  58.1769820  37.3664180  62.0261250  58.5445810  38.7506320
  62.4079830  62.5760130  40.0257490  62.1108120  61.9705600  39.3465270
  63.3579650  62.6137440  39.9146850  60.6526750  55.6635780  41.6417320
  61.2041340  55.7731120  40.8670570  61.1670260  56.0373380  42.3572550
  70.4965440  66.1492000  43.6880590  70.0196000  66.9564190  43.4953200
  69.8127230  65.4970330  43.8406800  61.4998260  62.3141820  46.6765290
  60.6026790  62.5381790  46.9238690  61.5251130  62.4376760  45.7276690
  68.5403480  59.1634940  32.5906550  68.9796760  58.3257370  32.4444370
  69.2531900  59.7964340  32.6770690  60.3269480  59.1855140  45.2522660
  60.1877250  60.0577940  45.6210060  59.4450840  58.8427950  45.1070600
  66.6498860  64.1031010  36.5587790  67.0894770  64.8455340  36.1443180
  66.5885750  64.3457580  37.4826750  62.1249830  65.1276840  47.4607810
  62.0965260  65.5319790  46.5936240  61.9614800  64.1987200  47.2979410
  72.1220620  50.4177750  30.9047590  71.8093280  50.5104580  31.8046660
  72.8833090  50.9958780  30.8545020  58.6402760  57.7837550  35.3624930
  58.5200360  58.5099640  34.7506200  58.3303650  57.0140460  34.8852840
  74.0764650  65.9103940  48.7571980  74.5524370  66.3886830  49.4361060
  74.6971810  65.8421430  48.0317480  56.2788130  60.9552690  41.1693570
  56.3568550  61.0901460  40.2249290  56.8929810  60.2468580  41.3621690
  57.5235760  62.6552880  37.5799750  57.1163840  62.7967470  36.7253350
  58.4148770  62.3713040  37.3770960  73.4797900  63.1016790  45.9171990
  73.6060960  62.8628670  44.9989170  73.5219280  62.2701330  46.3894070
  67.3414640  66.8044790  44.4866800  67.8559310  66.7152800  45.2889230
  66.4983720  67.1504490  44.7794710  69.3169040  67.0900130  33.9150800
  69.1570180  66.8003070  34.8132630  69.1515750  66.3140260  33.3796030
  61.7957420  66.8698660  35.6922420  61.6199900  65.9534200  35.4790220
  60.9413160  67.2285950  35.9320220  69.0195170  64.5987690  32.4748800
  68.3260330  64.5964980  31.8151080  69.7618030  64.1747010  32.0442970
  68.5845100  66.2250400  36.5497290  69.0402050  65.4439780  36.8635910
  68.9237620  66.9357220  37.0938470  73.3321910  55.1549250  46.8821730
  72.7166180  55.6628920  46.3537190  73.0118330  54.2547580  46.8247670
  56.3347650  61.9966860  43.7088030  56.4978690  61.5272220  42.8907400
  56.8000100  61.4890420  44.3736870  61.1066420  51.1272620  38.7448600
  60.6634570  51.9082160  38.4133120  61.6651410  51.4502510  39.4519540
  65.3936230  53.9941140  44.3483920  64.9315600  54.2024160  45.1603860
  64.9914340  53.1800490  44.0454590  70.3940740  55.2150090  45.4780580
  69.5434330  54.9155840  45.7989650  70.2342530  55.4592100  44.5664400
  67.4890450  56.7151840  47.5779370  67.8143860  55.8815590  47.2381600
  68.2770780  57.2380360  47.7257700  64.2225240  50.7483320  33.6254430
  63.5979420  50.7443190  34.3507740  64.1355360  49.8814280  33.2290400
  63.1442320  51.6719950  40.6038200  63.4414650  52.5782780  40.5230220
  63.6927880  51.1838730  39.9897770  60.8980640  56.2506190  36.4729850
  60.6721560  56.0343360  37.3776470  60.1173170  56.6834650  36.1275820
  68.1278400  56.2569560  35.0720500  67.5287290  56.9805360  34.8884120
  68.6758010  56.1946340  34.2896950  63.3379850  57.1491770  47.1390120
  63.2423450  56.2086500  46.9890520  64.1811830  57.3706840  46.7438190
  66.7343270  54.8933100  37.1023780  67.1272840  55.2105300  36.2892470
  67.0960120  54.0144980  37.2168300  58.4690390  53.5605440  45.2923900
  58.0753780  54.4080650  45.4996680  57.7808790  52.9231810  45.4832540
  65.0435440  53.6440410  48.3620640  64.3533760  53.4512610  48.9966730
  65.7867740  53.9275050  48.8944940  55.7707440  51.4833900  39.3253980
  55.4820490  52.0536760  40.0378960  56.5153200  51.0038350  39.6885210
  55.9577670  55.4254020  30.5356700  55.8752340  56.3684780  30.6771690
  55.6060730  55.2828930  29.6569050  67.3198410  57.4838850  41.1974560
  66.5879530  57.9925660  41.5464660  66.9222750  56.6668830  40.8963340
  63.7575800  54.1593050  39.6027050  63.7611860  53.7183000  38.7531590
  64.6526920  54.4810380  39.7098870  59.6078180  54.0419540  38.5621260
  59.2678230  54.5194770  39.3188310  58.8455500  53.5884660  38.2022360
  63.8195950  55.1605130  32.5933810  63.9408770  55.1191610  33.5419630
  63.4344460  56.0229280  32.4380540  67.7824320  52.9372530  40.6097500
  67.7997060  53.3881180  41.4539350  67.5339900  52.0378170  40.8230940
  62.8317450  57.4706270  31.9917110  62.2634350  57.0224520  31.3653020
  63.5406450  57.8299050  31.4582260  71.2095070  50.3504710  46.4483880
  71.5340840  49.6194370  46.9741860  71.2451580  50.0318350  45.5464870
  57.9086630  61.3718290  45.8683840  57.5241420  60.7311960  46.4666800
  58.2198820  62.0754410  46.4378570  64.0583770  58.2194830  41.3492460
  64.4253900  57.7453400  42.0953800  63.8688830  59.0936400  41.6900800
  56.9224260  52.9638520  37.4785930  56.6371180  52.5994190  38.3164550
  56.8603120  52.2318980  36.8649070  61.8483140  57.2603470  43.6676670
  61.5440210  58.1395450  43.8927030  62.8029600  57.3203260  43.7034110
  60.3764930  61.4664460  34.2643520  59.6027190  60.9262080  34.1042240
  61.1059560  60.9471070  33.9261280  71.1352910  60.4629820  40.0569910
  71.8552030  60.9585110  39.6666020  70.9334730  59.7847710  39.4123780
  66.5962850  51.8567780  34.1999300  65.7827460  51.3580950  34.1244610
  66.4024800  52.6966030  33.7835650  66.5171710  60.5338880  45.9438910
  66.4509020  59.6134550  45.6896500  65.8876850  60.6314320  46.6583550
  69.3111240  56.2287430  32.4961460  70.1990860  56.5404660  32.3212800
  69.2816330  55.3559680  32.1042040  60.4202330  61.1344840  37.9022330
  60.9381000  60.3313100  37.8479220  59.9686350  61.0723980  38.7439160
  65.3071830  62.4011120  33.1749630  65.6487530  63.1453350  32.6792950
  64.4784540  62.7142240  33.5374460  57.9046870  58.1006210  44.8148030
  57.5461810  58.7660060  45.4021370  57.6101430  57.2689760  45.1860650
  61.1059990  58.5590450  47.6987580  60.8060130  58.7047630  46.8015400
  61.8771230  57.9995740  47.6060970  66.4488440  63.3559450  45.6942710
  66.4632980  62.4240410  45.4761620  65.7413540  63.4419210  46.3332480
  71.5825510  57.5399270  31.9641320  71.4989230  57.9713490  31.1137760
  72.3019700  57.9997620  32.3968140  72.6599650  59.9966790  45.0411290
  71.9347840  60.5895570  44.8440680  73.1875110  59.9890330  44.2424660
  72.6112760  64.3941530  34.6923450  71.9688920  63.7397150  34.9667170
  72.2243420  64.7996620  33.9164120  68.1899240  61.7226960  38.5395140
  68.5423060  61.1255090  37.8796510  67.3061570  61.3971190  38.7103390
  64.2762520  62.4824650  35.9465550  64.9633650  63.0293860  36.3273140
  63.4894940  63.0265380  35.9815160  56.4154920  58.0997470  31.4382630
  57.2849770  58.3822270  31.7218550  55.9245240  58.9133340  31.3231440
  63.5789730  59.4870680  35.5590910  64.0352510  60.2975930  35.7851100
  63.2277940  59.1693820  36.3909400  65.8822340  64.9977020  42.7883210
  66.5264560  65.2036400  43.4656630  66.2451780  64.2365420  42.3354060
  59.4801510  49.8308330  36.0313430  59.3516140  49.8226230  36.9798350
  58.6563530  50.1691420  35.6804440  67.1554420  63.0009370  41.5060660
  67.7976650  62.3002530  41.6192830  67.6803770  63.7807810  41.3257550
  71.0010140  63.2857990  31.2299800  70.7747720  62.5688430  31.8224440
  70.6106340  63.0370430  30.3921550  68.9292040  63.8004270  44.7096720
  69.2648280  64.3870960  45.3874640  68.0092380  63.6696980  44.9394510
  56.7826170  67.3124850  32.0044260  57.1423810  67.9114190  31.3501530
  56.6418510  67.8584740  32.7779290  56.4795440  51.5899450  45.4920130
  55.7653960  51.7896370  46.0972740  56.8990480  50.8139020  45.8634930
  70.5826390  61.2029930  32.8913960  70.2948090  61.6642620  33.6791840
  71.3778560  60.7427700  33.1598180  56.7668030  65.5779710  46.4786660
  56.8759150  64.6374450  46.3382050  56.1148590  65.8434460  45.8300390
  64.7580620  63.8495600  47.8784780  64.4377490  63.1304840  48.4230470
  64.0838980  64.5250670  47.9520840  62.7994790  64.6956050  32.8217930
  62.7904890  65.4285740  32.2062440  61.8793150  64.4487630  32.9144890
  58.4001430  59.9170940  33.5664690  57.7929380  60.6569840  33.5759990
  58.8750780  60.0070300  32.7402890  67.9734220  54.0821760  43.2421580
  68.3415040  53.2616970  43.5701150  67.1132420  54.1423650  43.6577230
  71.3396250  53.0378700  34.0509140  70.7109410  53.1424370  33.3367370
  70.8448170  53.2575480  34.8403020  65.7854390  64.7584290  31.4843120
  65.8866370  64.5548280  30.5545100  64.8856130  64.5042570  31.6890900
  63.3080280  55.3164650  35.4667020  62.5996430  55.7850990  35.9080630
  63.5924760  54.6586660  36.1012210  64.9336210  56.7361350  43.4659550
  65.4321460  57.2107170  44.1311400  65.0759160  55.8124870  43.6729580
  67.3395710  52.0415310  36.9062810  67.2163490  52.0601440  35.9572320
  68.2880270  52.0894250  37.0261210  64.4272500  67.2770610  36.1790790
  64.6814000  67.2392000  35.2570160  63.4784980  67.1503940  36.1719040
  61.5115300  53.6249730  32.8417730  62.3605830  54.0619880  32.7757920
  61.1446570  53.9369990  33.6689790  72.1403070  52.9529310  44.3087940
  71.6376670  53.6934710  44.6481750  72.9559730  53.3413310  43.9924730
  70.4325080  58.1962490  37.7549300  69.4915220  58.2112720  37.9296990
  70.7469150  57.4098450  38.2009600  60.4106720  59.8782090  31.3153260
  61.1769990  59.7663450  31.8778690  60.4881410  59.1820060  30.6630030
  59.1053480  57.3107160  31.9986150  59.1857070  56.3634670  32.1103550
  59.9973230  57.6414040  32.1046810  72.4350660  65.3671340  39.4303560
  72.5598080  66.1902510  39.9027370  73.3016220  65.1562070  39.0827710
  59.9068190  67.4602550  39.1020690  60.6430670  66.9118010  39.3729260
  60.2909110  68.3258560  38.9626680  56.7913670  63.5276120  34.9762200
  55.8653450  63.7697260  34.9667610  57.2570100  64.3550380  34.8546950
  58.9126470  66.6448620  48.2906270  59.7139200  66.9660670  48.7041670
  58.3978290  66.2844200  49.0126180  63.0170500  66.6332860  30.9246260
  63.8099110  66.9221690  30.4728050  62.4974850  66.2025030  30.2458740
  67.7491100  62.7528490  48.2381680  67.1429260  62.7760090  47.4977430
  67.4445210  62.0211530  48.7748930  69.1791470  66.4808780  46.8491090
  70.1313220  66.3966800  46.7991330  69.0319690  67.1450490  47.5224880
  72.0700670  65.8602990  32.3483000  71.7842180  65.4468130  31.5337180
  71.8720220  66.7890700  32.2283520  56.6324280  59.1322080  47.2342320
  57.1363300  58.5529360  47.8058550  55.8931700  59.4162310  47.7718690
  63.5347900  61.8536270  30.7888610  63.4298540  61.2388620  31.5149990
  63.3672120  61.3302160  30.0051620  63.6862220  60.5393070  46.7677840
  62.9207890  61.1078070  46.6832510  63.8678180  60.2469280  45.8746070
  66.7750630  60.9156300  31.3930600  66.2260730  61.3625600  32.0373340
  67.3969890  60.4105550  31.9168270  70.8285570  62.2698400  47.3252860
  71.5695040  62.6074160  46.8220320  70.0658250  62.4390460  46.7722630
  58.6647360  57.2751670  48.1292390  58.7052700  56.9765540  49.0377620
  59.5192860  57.6759280  47.9699910  62.4425750  59.8747220  33.2895900
  62.8642170  59.7087090  34.1327290  62.5676590  59.0647450  32.7951040
  60.6053170  55.8543770  46.0966880  60.0749630  55.3634720  45.4690220
  61.2741240  56.2827970  45.5624810  64.9553390  58.8984830  30.5373000
  65.4759050  58.1833850  30.1714150  65.6021790  59.5370700  30.8373510
  69.5031230  60.3213230  45.8608070  69.9172250  60.4758310  46.7098490
  68.5682230  60.4468450  46.0233850  69.9753400  57.6609390  47.8647220
  70.5574170  56.9061710  47.7767700  70.1515170  58.1916830  47.0878700
  61.0925470  52.8206140  46.1764170  60.9982340  52.2026890  45.4515040
  60.5122860  53.5472430  45.9494080  63.8586910  51.3779380  43.2091560
  63.4104210  51.4003640  42.3637110  63.2252110  50.9798400  43.8061860
  64.2646460  60.2733710  43.8304000  64.6834570  61.1166440  43.6580240
  63.3455090  60.4105750  43.6010780  66.6010360  58.0049890  45.2141840
  66.7206570  57.4091030  45.9536680  67.4604360  58.0419580  44.7943140
  68.9398260  58.5587080  43.7904350  68.4133480  59.0829700  43.1869490
  69.2829600  59.1914470  44.4214080  61.3384650  55.9480450  30.2354060
  61.1373710  55.0847810  30.5967400  61.1676700  55.8613810  29.2975660
  62.1153880  66.5786720  44.9461730  61.5774970  67.3032780  44.6270430
  62.3687840  66.1017060  44.1559070  63.3679130  54.5471240  46.4717660
  63.9578820  54.2387090  47.1595480  62.5499370  54.0750990  46.6277560
  68.1872560  54.1637050  46.7050680  67.4988080  53.5018590  46.6400670
  68.9078580  53.7175320  47.1499140  68.8172960  50.7588680  32.7640940
  69.0975250  49.9156580  33.1200360  68.0438690  50.9911790  33.2779690
  60.1367450  53.0481070  30.2231940  60.4393350  53.0548500  29.3151090
  60.8762040  52.6978930  30.7199600  64.9716090  67.8137930  45.2048380
  64.8974790  68.7173070  45.5120750  64.0694930  67.4949830  45.1770450
  63.3552380  51.9915690  31.2088140  63.0074380  51.3139680  30.6290590
  63.5565150  51.5305200  32.0231530  65.5201420  66.9796440  32.8274740
  66.4152210  67.3181410  32.8493500  65.5519050  66.2575850  32.1999020
  59.1597580  62.3523490  31.0561740  59.5972450  62.8953160  31.7119320
  59.6445310  61.5270440  31.0658080  56.3743380  65.1412520  38.5082000
  56.7046390  64.2733580  38.2760640  56.8034380  65.3471040  39.3386960
  60.9705300  63.4721530  36.1683970  60.6700840  63.3486500  37.0687880
  60.8642790  62.6130120  35.7599700  56.8633590  66.0083110  41.2463630
  56.4264580  66.1883910  42.0787780  57.4311270  66.7657730  41.1045350
  72.4995770  65.5100110  45.5340940  71.8997760  65.5692670  44.7904860
  72.6289670  64.5705090  45.6637790  73.7397220  63.2517930  30.8710650
  72.9090180  63.3194580  31.3417880  73.9169050  64.1422050  30.5677510
  73.1953680  59.9965410  33.3744850  73.9572590  60.5662060  33.4804540
  73.2108050  59.4292610  34.1453160  56.6958020  58.5203340  37.6052510
  56.0406860  58.2514980  36.9612210  57.5335970  58.4107820  37.1554490
  74.2013650  60.8515510  38.2186780  74.5722480  60.0682830  37.8122750
  74.8415580  61.5404610  38.0404080  71.1847410  62.2352090  43.6317100
  70.3707250  62.6649250  43.8942890  71.5921610  62.8470500  43.0186150
  73.2472850  60.2899780  30.5317370  73.5221690  61.1978660  30.4036590
  73.0583590  60.2262310  31.4679360  69.6448460  53.3144630  31.8271000
  70.0633340  53.1275610  30.9867660  69.3384520  52.4623680  32.1373930
  73.1438190  58.2268770  35.5246800  72.7681790  57.4596700  35.0928090
  72.4141310  58.6091470  36.0121730  57.7333950  58.9055910  42.1455850
  58.1006990  58.8183310  43.0251870  57.1644770  58.1422460  42.0462710
  72.5337810  57.3740290  45.1586320  72.3023900  57.1453040  44.2584270
  72.7942360  58.2939840  45.1131210  57.2849950  55.8165000  46.0514270
  56.3906000  55.7831760  46.3907980  57.8247500  56.0151790  46.8165520
  70.9725880  52.5996720  47.9366020  71.8496060  52.6080120  48.3200020
  70.9846720  51.8627560  47.3258370  55.9096100  55.7302270  33.5477840
  55.0060180  55.9932470  33.3729500  56.3936720  56.0013440  32.7677800
  72.4189150  56.4526260  38.8254040  72.9426630  55.9588910  38.1944210
  73.0048570  56.5876620  39.5701610  72.5978870  56.5366130  42.3473590
  71.6481580  56.5029670  42.4618580  72.7791880  57.4466240  42.1123360
  58.4523310  54.7867810  31.4572220  59.1615010  54.3651030  30.9719500
  57.7363250  54.8543040  30.8255570  58.0997470  50.8407140  30.4974870
  58.8225600  51.3816080  30.8156090  58.3721990  50.5670560  29.6216410
  71.9089120  55.7099610  34.7646450  72.4048240  55.4770480  35.5495330
  71.7105190  54.8711450  34.3484090  57.7889660  50.0913330  40.3997490
  58.4365850  49.5410710  39.9592650  58.2091500  50.3456480  41.2213300
  73.3376280  54.3460560  37.2984130  73.2275560  54.1916600  38.2366400
  74.0983870  53.8181500  37.0559540  71.6842000  50.2854690  43.7567130
  72.3214220  50.8988830  44.1226320  71.8316890  50.3215350  42.8116360
  74.2266550  52.1768480  30.5390270  75.1515860  52.0449660  30.3308560
  74.2042340  52.2561300  31.4926720  74.3005040  52.9479140  33.1646980
  73.5056540  52.8824260  33.6939890  74.5048320  53.8829780  33.1532330
  71.2423460  66.9870690  37.1585370  71.8382530  66.6655260  36.4819790
  71.5001610  66.5142510  37.9498640  57.5421660  50.2469000  43.1422810
  57.1936480  50.7032820  43.9080990  57.2109360  49.3526130  43.2245240
  59.1486030  63.4188600  47.3076000  59.1055660  63.0481510  48.1890460
  59.2797040  64.3566170  47.4477820  62.8492060  64.9748190  42.9085720
  62.6083420  65.2422750  42.0216240  63.7894700  65.1453920  42.9636580
  65.0546480  51.4380880  46.6642230  64.9935370  52.0302710  47.4137640
  65.9946860  51.3306840  46.5192490  67.6921040  51.0950940  46.3034520
  68.3061450  51.4130230  45.6415600  68.2370600  50.6099530  46.9230380
  74.1096220  66.9942570  43.7096360  73.6154500  67.3911440  42.9923490
  73.5009510  66.3691780  44.1033640  58.2142300  49.7745200  46.4173580
  58.7625290  49.5933250  45.6539690  58.2797610  48.9839310  46.9529890
  58.9874060  66.3650850  44.4273780  58.3934380  66.2335550  45.1663820
  58.9797900  65.5288990  43.9615880  68.4329080  49.6583080  42.6303810
  67.5588920  49.9918190  42.4276740  68.3239830  49.1856260  43.4555680
  69.3401060  51.8653950  44.0145530  69.0114420  51.0505710  43.6347260
  70.2883360  51.8223760  43.8911220  71.7935670  67.6365990  40.9883100
  71.3338640  68.3881800  40.6141120  71.1648130  66.9172460  40.9297900
  58.6186290  63.7309230  43.3781820  57.8920350  63.1114520  43.3107770
  58.6795440  64.1249840  42.5079900  62.2231390  65.9454230  40.1631230
  62.7396410  65.3341590  39.6379490  62.8728770  66.4483010  40.6542240
  64.9626890  66.8362720  40.9900210  65.2504700  66.5817020  40.1133220
  65.4750110  66.2840080  41.5805780  66.1803900  50.5752920  41.5696720
  65.3975690  51.0498420  41.8493480  65.8866830  49.6707750  41.4609900
  70.7324970  51.2776020  39.6145810  71.1733060  51.2221120  38.7667410
  70.4632560  52.1934030  39.6855990  72.5963540  50.9091260  37.6254630
  72.5351940  49.9652480  37.4785650  73.3755570  51.0171350  38.1708090
  56.9016290  67.0483620  36.5878580  56.7338330  66.4154300  37.2860470
  56.0350800  67.2543020  36.2372770  57.5244310  50.8800400  34.0910440
  58.2823670  50.9929280  33.5174470  57.0621480  51.7169600  34.0453870
  64.0658120  52.9939670  37.0812750  63.2532630  52.6196560  36.7408630
  64.5699760  52.2384750  37.3833940  68.5683100  49.6582120  38.3195820
  69.1712470  50.2302330  38.7944340  67.8276090  50.2221560  38.0969720
  71.7117700  50.0603680  33.5936100  71.9068330  50.9587130  33.8603530
  70.9247570  49.8290760  34.0869050  58.5078990  65.7416850  34.0328720
  57.9826610  66.1224880  33.3290680  58.4323570  66.3667620  34.7538430
  59.8969460  51.4064450  32.6312410  60.4262220  50.6194250  32.5020360
  60.5297780  52.0855640  32.8647940  62.0907300  51.1439590  35.6857800
  61.4610040  50.4426900  35.8527930  61.5512440  51.9043720  35.4690960
  65.0299250  67.7578820  48.3568410  65.9566560  67.5223090  48.4004370
  65.0149680  68.5850820  47.8754440  73.2644310  67.3004390  35.3542660
  73.4396500  66.6142130  34.7103580  72.5665880  67.8251440  34.9619330
  62.2162860  50.4223570  48.1210290  61.9347130  50.9257170  47.3571110
  62.5982560  49.6245320  47.7552420  61.1071960  67.6899230  32.9077970
  61.8390780  67.4058510  32.3601860  61.3665630  67.4512510  33.7977350
  60.2686750  63.8063960  32.9124300  59.6395630  64.2749060  33.4610130
  60.3834580  62.9613180  33.3470490  68.8178320  49.8377150  48.6990760
  68.7043770  50.1571760  49.5942280  69.6348060  50.2389660  48.4028040
  71.5976810  66.9848680  48.1809450  72.3902130  66.4897910  47.9735410
  71.8909960  67.6638820  48.7885060  67.7236470  57.8569620  19.0625500
  67.6430520  56.9424230  18.7917210  67.3100890  58.3536690  18.3565210
  65.8554510  59.6348640  20.9434770  65.0796610  59.1549080  21.2333340
  66.5067440  58.9554290  20.7690930  59.8720340  59.9468450  21.8210530
  59.0405220  59.6917160  22.2207040  60.4801320  60.0179220  22.5568450
  69.8761940  64.0408830  19.7233900  69.4143470  63.2696070  20.0521070
  70.6887490  64.0674900  20.2286350  59.8521600  63.9808540  22.0168550
  60.1549640  63.0906280  21.8378770  60.5965190  64.5378760  21.7890800
  58.2812290  54.9070340  15.6052920  57.3928990  55.2486310  15.5032800
  58.5653480  54.7070660  14.7133750  56.2445300  57.5075990  21.4892620
  56.8161410  56.7398190  21.4896260  56.2446840  57.8064750  20.5799230
  66.1025250  66.3266840  19.3437890  65.4836690  66.7824340  18.7732330
  66.9577030  66.4818300  18.9427590  65.2963500  62.3105830  20.9504930
  65.2271780  61.3695770  20.7894060  66.0583360  62.4007240  21.5227500
  57.4870170  52.9160350  23.2761550  57.3073010  52.0186100  23.5564310
  57.0850250  53.4632220  23.9508500  66.3268670  55.1176210  21.1773860
  66.7033490  54.2448090  21.0647530  66.2288180  55.4534910  20.2864300
  60.4573680  53.4901840  16.6391300  60.5640430  54.3905570  16.9460060
  59.5466040  53.4419810  16.3485950  70.1092790  52.6126650  18.1102200
  70.9302410  52.1223220  18.1527680  70.1426870  53.2024310  18.8634040
  58.1056840  55.4120850  21.8843890  58.7866950  55.6759220  22.5031290
  57.7904890  54.5721720  22.2181900  62.2981410  56.4588210  20.9716480
  62.8059630  56.9569180  21.6121500  62.8294650  55.6823410  20.7955840
  74.3992340  54.6293400  24.6745830  73.6944510  55.0175110  24.1560940
  74.6650260  55.3243690  25.2766760  60.5817510  51.0986770  25.2379900
  60.5835950  51.6159160  24.4325800  59.7521820  50.6216950  25.2149830
  66.9688600  61.2106080  16.7369800  66.3505870  61.6755530  16.1732520
  67.4811850  61.9033560  17.1539310  61.8320360  60.7381950  23.4153400
  61.4989740  61.3650870  24.0574470  62.0087040  61.2643830  22.6355070
  70.3454270  54.5527030  20.8829740  69.6409840  54.8411920  21.4632850
  70.7066430  55.3627140  20.5229300  60.2632840  52.8096730  23.2450350
  60.6049650  53.6538780  22.9504220  59.3248650  52.9580470  23.3615690
  61.0439460  62.7062750  25.2302580  61.6613460  63.3813830  24.9487030
  60.1832580  63.1150730  25.1390080  56.3371800  61.8962610  14.1109430
  55.9599780  62.3849710  13.3794330  56.5944870  62.5687890  14.7415960
  71.9617050  64.1702160  23.1457220  71.2780570  64.8401270  23.1373890
  72.5011340  64.3682810  22.3802080  73.4141190  53.9981820  21.2738950
  72.4666100  54.0320800  21.4054380  73.7391180  54.8120770  21.6588310
  63.9460730  50.2979000  19.5694940  64.2535710  49.7425890  18.8530440
  63.0161430  50.4323460  19.3867930  69.4975790  66.0146290  21.8602400
  69.5102950  65.6108580  20.9924660  68.9451010  66.7893580  21.7563830
  70.7921210  62.7362510  16.9492570  70.6817540  61.7936840  17.0741990
  70.7889460  63.0978150  17.8355330  68.8961230  60.9176130  23.1885010
  69.3130020  60.7036240  22.3538470  69.6201050  61.1748920  23.7593630
  66.3341490  58.3627830  16.3055060  65.4070770  58.2965210  16.5343530
  66.4866310  59.3007960  16.1910300  66.3210570  54.6344830  13.3022220
  65.3814240  54.7958790  13.3874680  66.6393830  55.3530510  12.7558210
  72.8423330  59.3163350  23.2801250  72.0141960  59.3856440  22.8051380
  73.4373810  59.9017660  22.8117080  70.3638780  59.9248130  16.8090310
  69.7451200  59.5867680  16.1616610  70.3463230  59.2807890  17.5169500
  69.8065340  56.1032670  24.2256120  69.3936520  56.9286380  24.4796110
  69.0741290  55.5177710  24.0332480  61.9398130  58.8892570  19.0874790
  61.5355130  58.1769820  18.5920690  62.0261250  58.5445810  19.9762830
  62.4079830  62.5760130  21.2514000  62.1108120  61.9705600  20.5721780
  63.3579650  62.6137440  21.1403360  60.6526750  55.6635780  22.8673830
  61.2041340  55.7731120  22.0927080  61.1670260  56.0373380  23.5829060
  70.4965440  66.1492000  24.9137100  70.0196000  66.9564190  24.7209710
  69.8127230  65.4970330  25.0663310  61.4998260  62.3141820  27.9021800
  60.6026790  62.5381790  28.1495200  61.5251130  62.4376760  26.9533200
  68.5403480  59.1634940  13.8163060  68.9796760  58.3257370  13.6700880
  69.2531900  59.7964340  13.9027200  60.3269480  59.1855140  26.4779170
  60.1877250  60.0577940  26.8466570  59.4450840  58.8427950  26.3327110
  66.6498860  64.1031010  17.7844300  67.0894770  64.8455340  17.3699690
  66.5885750  64.3457580  18.7083260  62.1249830  65.1276840  28.6864320
  62.0965260  65.5319790  27.8192750  61.9614800  64.1987200  28.5235920
  72.1220620  50.4177750  12.1304100  71.8093280  50.5104580  13.0303170
  72.8833090  50.9958780  12.0801530  58.6402760  57.7837550  16.5881440
  58.5200360  58.5099640  15.9762710  58.3303650  57.0140460  16.1109350
  74.0764650  65.9103940  29.9828490  74.5524370  66.3886830  30.6617570
  74.6971810  65.8421430  29.2573990  56.2788130  60.9552690  22.3950080
  56.3568550  61.0901460  21.4505800  56.8929810  60.2468580  22.5878200
  57.5235760  62.6552880  18.8056260  57.1163840  62.7967470  17.9509860
  58.4148770  62.3713040  18.6027470  73.4797900  63.1016790  27.1428500
  73.6060960  62.8628670  26.2245680  73.5219280  62.2701330  27.6150580
  67.3414640  66.8044790  25.7123310  67.8559310  66.7152800  26.5145740
  66.4983720  67.1504490  26.0051220  69.3169040  67.0900130  15.1407310
  69.1570180  66.8003070  16.0389140  69.1515750  66.3140260  14.6052540
  61.7957420  66.8698660  16.9178930  61.6199900  65.9534200  16.7046730
  60.9413160  67.2285950  17.1576730  69.0195170  64.5987690  13.7005310
  68.3260330  64.5964980  13.0407590  69.7618030  64.1747010  13.2699480
  68.5845100  66.2250400  17.7753800  69.0402050  65.4439780  18.0892420
  68.9237620  66.9357220  18.3194980  73.3321910  55.1549250  28.1078240
  72.7166180  55.6628920  27.5793700  73.0118330  54.2547580  28.0504180
  56.3347650  61.9966860  24.9344540  56.4978690  61.5272220  24.1163910
  56.8000100  61.4890420  25.5993380  61.1066420  51.1272620  19.9705110
  60.6634570  51.9082160  19.6389630  61.6651410  51.4502510  20.6776050
  65.3936230  53.9941140  25.5740430  64.9315600  54.2024160  26.3860370
  64.9914340  53.1800490  25.2711100  70.3940740  55.2150090  26.7037090
  69.5434330  54.9155840  27.0246160  70.2342530  55.4592100  25.7920910
  67.4890450  56.7151840  28.8035880  67.8143860  55.8815590  28.4638110
  68.2770780  57.2380360  28.9514210  64.2225240  50.7483320  14.8510940
  63.5979420  50.7443190  15.5764250  64.1355360  49.8814280  14.4546910
  63.1442320  51.6719950  21.8294710  63.4414650  52.5782780  21.7486730
  63.6927880  51.1838730  21.2154280  60.8980640  56.2506190  17.6986360
  60.6721560  56.0343360  18.6032980  60.1173170  56.6834650  17.3532330
  68.1278400  56.2569560  16.2977010  67.5287290  56.9805360  16.1140630
  68.6758010  56.1946340  15.5153460  63.3379850  57.1491770  28.3646630
  63.2423450  56.2086500  28.2147030  64.1811830  57.3706840  27.9694700
  66.7343270  54.8933100  18.3280290  67.1272840  55.2105300  17.5148980
  67.0960120  54.0144980  18.4424810  58.4690390  53.5605440  26.5180410
  58.0753780  54.4080650  26.7253190  57.7808790  52.9231810  26.7089050
  65.0435440  53.6440410  29.5877150  64.3533760  53.4512610  30.2223240
  65.7867740  53.9275050  30.1201450  55.7707440  51.4833900  20.5510490
  55.4820490  52.0536760  21.2635470  56.5153200  51.0038350  20.9141720
  55.9577670  55.4254020  11.7613210  55.8752340  56.3684780  11.9028200
  55.6060730  55.2828930  10.8825560  67.3198410  57.4838850  22.4231070
  66.5879530  57.9925660  22.7721170  66.9222750  56.6668830  22.1219850
  63.7575800  54.1593050  20.8283560  63.7611860  53.7183000  19.9788100
  64.6526920  54.4810380  20.9355380  59.6078180  54.0419540  19.7877770
  59.2678230  54.5194770  20.5444820  58.8455500  53.5884660  19.4278870
  63.8195950  55.1605130  13.8190320  63.9408770  55.1191610  14.7676140
  63.4344460  56.0229280  13.6637050  67.7824320  52.9372530  21.8354010
  67.7997060  53.3881180  22.6795860  67.5339900  52.0378170  22.0487450
  62.8317450  57.4706270  13.2173620  62.2634350  57.0224520  12.5909530
  63.5406450  57.8299050  12.6838770  71.2095070  50.3504710  27.6740390
  71.5340840  49.6194370  28.1998370  71.2451580  50.0318350  26.7721380
  57.9086630  61.3718290  27.0940350  57.5241420  60.7311960  27.6923310
  58.2198820  62.0754410  27.6635080  64.0583770  58.2194830  22.5748970
  64.4253900  57.7453400  23.3210310  63.8688830  59.0936400  22.9157310
  56.9224260  52.9638520  18.7042440  56.6371180  52.5994190  19.5421060
  56.8603120  52.2318980  18.0905580  61.8483140  57.2603470  24.8933180
  61.5440210  58.1395450  25.1183540  62.8029600  57.3203260  24.9290620
  60.3764930  61.4664460  15.4900030  59.6027190  60.9262080  15.3298750
  61.1059560  60.9471070  15.1517790  71.1352910  60.4629820  21.2826420
  71.8552030  60.9585110  20.8922530  70.9334730  59.7847710  20.6380290
  66.5962850  51.8567780  15.4255810  65.7827460  51.3580950  15.3501120
  66.4024800  52.6966030  15.0092160  66.5171710  60.5338880  27.1695420
  66.4509020  59.6134550  26.9153010  65.8876850  60.6314320  27.8840060
  69.3111240  56.2287430  13.7217970  70.1990860  56.5404660  13.5469310
  69.2816330  55.3559680  13.3298550  60.4202330  61.1344840  19.1278840
  60.9381000  60.3313100  19.0735730  59.9686350  61.0723980  19.9695670
  65.3071830  62.4011120  14.4006140  65.6487530  63.1453350  13.9049460
  64.4784540  62.7142240  14.7630970  57.9046870  58.1006210  26.0404540
  57.5461810  58.7660060  26.6277880  57.6101430  57.2689760  26.4117160
  61.1059990  58.5590450  28.9244090  60.8060130  58.7047630  28.0271910
  61.8771230  57.9995740  28.8317480  66.4488440  63.3559450  26.9199220
  66.4632980  62.4240410  26.7018130  65.7413540  63.4419210  27.5588990
  71.5825510  57.5399270  13.1897830  71.4989230  57.9713490  12.3394270
  72.3019700  57.9997620  13.6224650  72.6599650  59.9966790  26.2667800
  71.9347840  60.5895570  26.0697190  73.1875110  59.9890330  25.4681170
  72.6112760  64.3941530  15.9179960  71.9688920  63.7397150  16.1923680
  72.2243420  64.7996620  15.1420630  68.1899240  61.7226960  19.7651650
  68.5423060  61.1255090  19.1053020  67.3061570  61.3971190  19.9359900
  64.2762520  62.4824650  17.1722060  64.9633650  63.0293860  17.5529650
  63.4894940  63.0265380  17.2071670  56.4154920  58.0997470  12.6639140
  57.2849770  58.3822270  12.9475060  55.9245240  58.9133340  12.5487950
  63.5789730  59.4870680  16.7847420  64.0352510  60.2975930  17.0107610
  63.2277940  59.1693820  17.6165910  65.8822340  64.9977020  24.0139720
  66.5264560  65.2036400  24.6913140  66.2451780  64.2365420  23.5610570
  59.4801510  49.8308330  17.2569940  59.3516140  49.8226230  18.2054860
  58.6563530  50.1691420  16.9060950  67.1554420  63.0009370  22.7317170
  67.7976650  62.3002530  22.8449340  67.6803770  63.7807810  22.5514060
  71.0010140  63.2857990  12.4556310  70.7747720  62.5688430  13.0480950
  70.6106340  63.0370430  11.6178060  68.9292040  63.8004270  25.9353230
  69.2648280  64.3870960  26.6131150  68.0092380  63.6696980  26.1651020
  56.7826170  67.3124850  13.2300770  57.1423810  67.9114190  12.5758040
  56.6418510  67.8584740  14.0035800  56.4795440  51.5899450  26.7176640
  55.7653960  51.7896370  27.3229250  56.8990480  50.8139020  27.0891440
  70.5826390  61.2029930  14.1170470  70.2948090  61.6642620  14.9048350
  71.3778560  60.7427700  14.3854690  56.7668030  65.5779710  27.7043170
  56.8759150  64.6374450  27.5638560  56.1148590  65.8434460  27.0556900
  64.7580620  63.8495600  29.1041290  64.4377490  63.1304840  29.6486980
  64.0838980  64.5250670  29.1777350  62.7994790  64.6956050  14.0474440
  62.7904890  65.4285740  13.4318950  61.8793150  64.4487630  14.1401400
  58.4001430  59.9170940  14.7921200  57.7929380  60.6569840  14.8016500
  58.8750780  60.0070300  13.9659400  67.9734220  54.0821760  24.4678090
  68.3415040  53.2616970  24.7957660  67.1132420  54.1423650  24.8833740
  71.3396250  53.0378700  15.2765650  70.7109410  53.1424370  14.5623880
  70.8448170  53.2575480  16.0659530  65.7854390  64.7584290  12.7099630
  65.8866370  64.5548280  11.7801610  64.8856130  64.5042570  12.9147410
  63.3080280  55.3164650  16.6923530  62.5996430  55.7850990  17.1337140
  63.5924760  54.6586660  17.3268720  64.9336210  56.7361350  24.6916060
  65.4321460  57.2107170  25.3567910  65.0759160  55.8124870  24.8986090
  67.3395710  52.0415310  18.1319320  67.2163490  52.0601440  17.1828830
  68.2880270  52.0894250  18.2517720  64.4272500  67.2770610  17.4047300
  64.6814000  67.2392000  16.4826670  63.4784980  67.1503940  17.3975550
  61.5115300  53.6249730  14.0674240  62.3605830  54.0619880  14.0014430
  61.1446570  53.9369990  14.8946300  72.1403070  52.9529310  25.5344450
  71.6376670  53.6934710  25.8738260  72.9559730  53.3413310  25.2181240
  70.4325080  58.1962490  18.9805810  69.4915220  58.2112720  19.1553500
  70.7469150  57.4098450  19.4266110  60.4106720  59.8782090  12.5409770
  61.1769990  59.7663450  13.1035200  60.4881410  59.1820060  11.8886540
  59.1053480  57.3107160  13.2242660  59.1857070  56.3634670  13.3360060
  59.9973230  57.6414040  13.3303320  72.4350660  65.3671340  20.6560070
  72.5598080  66.1902510  21.1283880  73.3016220  65.1562070  20.3084220
  59.9068190  67.4602550  20.3277200  60.6430670  66.9118010  20.5985770
  60.2909110  68.3258560  20.1883190  56.7913670  63.5276120  16.2018710
  55.8653450  63.7697260  16.1924120  57.2570100  64.3550380  16.0803460
  58.9126470  66.6448620  29.5162780  59.7139200  66.9660670  29.9298180
  58.3978290  66.2844200  30.2382690  63.0170500  66.6332860  12.1502770
  63.8099110  66.9221690  11.6984560  62.4974850  66.2025030  11.4715250
  67.7491100  62.7528490  29.4638190  67.1429260  62.7760090  28.7233940
  67.4445210  62.0211530  30.0005440  69.1791470  66.4808780  28.0747600
  70.1313220  66.3966800  28.0247840  69.0319690  67.1450490  28.7481390
  72.0700670  65.8602990  13.5739510  71.7842180  65.4468130  12.7593690
  71.8720220  66.7890700  13.4540030  56.6324280  59.1322080  28.4598830
  57.1363300  58.5529360  29.0315060  55.8931700  59.4162310  28.9975200
  63.5347900  61.8536270  12.0145120  63.4298540  61.2388620  12.7406500
  63.3672120  61.3302160  11.2308130  63.6862220  60.5393070  27.9934350
  62.9207890  61.1078070  27.9089020  63.8678180  60.2469280  27.1002580
  66.7750630  60.9156300  12.6187110  66.2260730  61.3625600  13.2629850
  67.3969890  60.4105550  13.1424780  70.8285570  62.2698400  28.5509370
  71.5695040  62.6074160  28.0476830  70.0658250  62.4390460  27.9979140
  58.6647360  57.2751670  29.3548900  58.7052700  56.9765540  30.2634130
  59.5192860  57.6759280  29.1956420  62.4425750  59.8747220  14.5152410
  62.8642170  59.7087090  15.3583800  62.5676590  59.0647450  14.0207550
  60.6053170  55.8543770  27.3223390  60.0749630  55.3634720  26.6946730
  61.2741240  56.2827970  26.7881320  64.9553390  58.8984830  11.7629510
  65.4759050  58.1833850  11.3970660  65.6021790  59.5370700  12.0630020
  69.5031230  60.3213230  27.0864580  69.9172250  60.4758310  27.9355000
  68.5682230  60.4468450  27.2490360  69.9753400  57.6609390  29.0903730
  70.5574170  56.9061710  29.0024210  70.1515170  58.1916830  28.3135210
  61.0925470  52.8206140  27.4020680  60.9982340  52.2026890  26.6771550
  60.5122860  53.5472430  27.1750590  63.8586910  51.3779380  24.4348070
  63.4104210  51.4003640  23.5893620  63.2252110  50.9798400  25.0318370
  64.2646460  60.2733710  25.0560510  64.6834570  61.1166440  24.8836750
  63.3455090  60.4105750  24.8267290  66.6010360  58.0049890  26.4398350
  66.7206570  57.4091030  27.1793190  67.4604360  58.0419580  26.0199650
  68.9398260  58.5587080  25.0160860  68.4133480  59.0829700  24.4126000
  69.2829600  59.1914470  25.6470590  61.3384650  55.9480450  11.4610570
  61.1373710  55.0847810  11.8223910  61.1676700  55.8613810  10.5232170
  62.1153880  66.5786720  26.1718240  61.5774970  67.3032780  25.8526940
  62.3687840  66.1017060  25.3815580  63.3679130  54.5471240  27.6974170
  63.9578820  54.2387090  28.3851990  62.5499370  54.0750990  27.8534070
  68.1872560  54.1637050  27.9307190  67.4988080  53.5018590  27.8657180
  68.9078580  53.7175320  28.3755650  68.8172960  50.7588680  13.9897450
  69.0975250  49.9156580  14.3456870  68.0438690  50.9911790  14.5036200
  60.1367450  53.0481070  11.4488450  60.4393350  53.0548500  10.5407600
  60.8762040  52.6978930  11.9456110  64.9716090  67.8137930  26.4304890
  64.8974790  68.7173070  26.7377260  64.0694930  67.4949830  26.4026960
  63.3552380  51.9915690  12.4344650  63.0074380  51.3139680  11.8547100
  63.5565150  51.5305200  13.2488040  65.5201420  66.9796440  14.0531250
  66.4152210  67.3181410  14.0750010  65.5519050  66.2575850  13.4255530
  59.1597580  62.3523490  12.2818250  59.5972450  62.8953160  12.9375830
  59.6445310  61.5270440  12.2914590  56.3743380  65.1412520  19.7338510
  56.7046390  64.2733580  19.5017150  56.8034380  65.3471040  20.5643470
  60.9705300  63.4721530  17.3940480  60.6700840  63.3486500  18.2944390
  60.8642790  62.6130120  16.9856210  56.8633590  66.0083110  22.4720140
  56.4264580  66.1883910  23.3044290  57.4311270  66.7657730  22.3301860
  72.4995770  65.5100110  26.7597450  71.8997760  65.5692670  26.0161370
  72.6289670  64.5705090  26.8894300  73.7397220  63.2517930  12.0967160
  72.9090180  63.3194580  12.5674390  73.9169050  64.1422050  11.7934020
  73.1953680  59.9965410  14.6001360  73.9572590  60.5662060  14.7061050
  73.2108050  59.4292610  15.3709670  56.6958020  58.5203340  18.8309020
  56.0406860  58.2514980  18.1868720  57.5335970  58.4107820  18.3811000
  74.2013650  60.8515510  19.4443290  74.5722480  60.0682830  19.0379260
  74.8415580  61.5404610  19.2660590  71.1847410  62.2352090  24.8573610
  70.3707250  62.6649250  25.1199400  71.5921610  62.8470500  24.2442660
  73.2472850  60.2899780  11.7573880  73.5221690  61.1978660  11.6293100
  73.0583590  60.2262310  12.6935870  69.6448460  53.3144630  13.0527510
  70.0633340  53.1275610  12.2124170  69.3384520  52.4623680  13.3630440
  73.1438190  58.2268770  16.7503310  72.7681790  57.4596700  16.3184600
  72.4141310  58.6091470  17.2378240  57.7333950  58.9055910  23.3712360
  58.1006990  58.8183310  24.2508380  57.1644770  58.1422460  23.2719220
  72.5337810  57.3740290  26.3842830  72.3023900  57.1453040  25.4840780
  72.7942360  58.2939840  26.3387720  57.2849950  55.8165000  27.2770780
  56.3906000  55.7831760  27.6164490  57.8247500  56.0151790  28.0422030
  70.9725880  52.5996720  29.1622530  71.8496060  52.6080120  29.5456530
  70.9846720  51.8627560  28.5514880  55.9096100  55.7302270  14.7734350
  55.0060180  55.9932470  14.5986010  56.3936720  56.0013440  13.9934310
  72.4189150  56.4526260  20.0510550  72.9426630  55.9588910  19.4200720
  73.0048570  56.5876620  20.7958120  72.5978870  56.5366130  23.5730100
  71.6481580  56.5029670  23.6875090  72.7791880  57.4466240  23.3379870
  58.4523310  54.7867810  12.6828730  59.1615010  54.3651030  12.1976010
  57.7363250  54.8543040  12.0512080  58.0997470  50.8407140  11.7231380
  58.8225600  51.3816080  12.0412600  58.3721990  50.5670560  10.8472920
  71.9089120  55.7099610  15.9902960  72.4048240  55.4770480  16.7751840
  71.7105190  54.8711450  15.5740600  57.7889660  50.0913330  21.6254000
  58.4365850  49.5410710  21.1849160  58.2091500  50.3456480  22.4469810
  73.3376280  54.3460560  18.5240640  73.2275560  54.1916600  19.4622910
  74.0983870  53.8181500  18.2816050  71.6842000  50.2854690  24.9823640
  72.3214220  50.8988830  25.3482830  71.8316890  50.3215350  24.0372870
  74.2266550  52.1768480  11.7646780  75.1515860  52.0449660  11.5565070
  74.2042340  52.2561300  12.7183230  74.3005040  52.9479140  14.3903490
  73.5056540  52.8824260  14.9196400  74.5048320  53.8829780  14.3788840
  71.2423460  66.9870690  18.3841880  71.8382530  66.6655260  17.7076300
  71.5001610  66.5142510  19.1755150  57.5421660  50.2469000  24.3679320
  57.1936480  50.7032820  25.1337500  57.2109360  49.3526130  24.4501750
  59.1486030  63.4188600  28.5332510  59.1055660  63.0481510  29.4146970
  59.2797040  64.3566170  28.6734330  62.8492060  64.9748190  24.1342230
  62.6083420  65.2422750  23.2472750  63.7894700  65.1453920  24.1893090
  65.0546480  51.4380880  27.8898740  64.9935370  52.0302710  28.6394150
  65.9946860  51.3306840  27.7449000  67.6921040  51.0950940  27.5291030
  68.3061450  51.4130230  26.8672110  68.2370600  50.6099530  28.1486890
  74.1096220  66.9942570  24.9352870  73.6154500  67.3911440  24.2180000
  73.5009510  66.3691780  25.3290150  58.2142300  49.7745200  27.6430090
  58.7625290  49.5933250  26.8796200  58.2797610  48.9839310  28.1786400
  58.9874060  66.3650850  25.6530290  58.3934380  66.2335550  26.3920330
  58.9797900  65.5288990  25.1872390  68.4329080  49.6583080  23.8560320
  67.5588920  49.9918190  23.6533250  68.3239830  49.1856260  24.6812190
  69.3401060  51.8653950  25.2402040  69.0114420  51.0505710  24.8603770
  70.2883360  51.8223760  25.1167730  71.7935670  67.6365990  22.2139610
  71.3338640  68.3881800  21.8397630  71.1648130  66.9172460  22.1554410
  58.6186290  63.7309230  24.6038330  57.8920350  63.1114520  24.5364280
  58.6795440  64.1249840  23.7336410  62.2231390  65.9454230  21.3887740
  62.7396410  65.3341590  20.8636000  62.8728770  66.4483010  21.8798750
  64.9626890  66.8362720  22.2156720  65.2504700  66.5817020  21.3389730
  65.4750110  66.2840080  22.8062290  66.1803900  50.5752920  22.7953230
  65.3975690  51.0498420  23.0749990  65.8866830  49.6707750  22.6866410
  70.7324970  51.2776020  20.8402320  71.1733060  51.2221120  19.9923920
  70.4632560  52.1934030  20.9112500  72.5963540  50.9091260  18.8511140
  72.5351940  49.9652480  18.7042160  73.3755570  51.0171350  19.3964600
  56.9016290  67.0483620  17.8135090  56.7338330  66.4154300  18.5116980
  56.0350800  67.2543020  17.4629280  57.5244310  50.8800400  15.3166950
  58.2823670  50.9929280  14.7430980  57.0621480  51.7169600  15.2710380
  64.0658120  52.9939670  18.3069260  63.2532630  52.6196560  17.9665140
  64.5699760  52.2384750  18.6090450  68.5683100  49.6582120  19.5452330
  69.1712470  50.2302330  20.0200850  67.8276090  50.2221560  19.3226230
  71.7117700  50.0603680  14.8192610  71.9068330  50.9587130  15.0860040
  70.9247570  49.8290760  15.3125560  58.5078990  65.7416850  15.2585230
  57.9826610  66.1224880  14.5547190  58.4323570  66.3667620  15.9794940
  59.8969460  51.4064450  13.8568920  60.4262220  50.6194250  13.7276870
  60.5297780  52.0855640  14.0904450  62.0907300  51.1439590  16.9114310
  61.4610040  50.4426900  17.0784440  61.5512440  51.9043720  16.6947470
  65.0299250  67.7578820  29.5824920  65.9566560  67.5223090  29.6260880
  65.0149680  68.5850820  29.1010950  73.2644310  67.3004390  16.5799170
  73.4396500  66.6142130  15.9360090  72.5665880  67.8251440  16.1875840
  62.2162860  50.4223570  29.3466800  61.9347130  50.9257170  28.5827620
  62.5982560  49.6245320  28.9808930  61.1071960  67.6899230  14.1334480
  61.8390780  67.4058510  13.5858370  61.3665630  67.4512510  15.0233860
  60.2686750  63.8063960  14.1380810  59.6395630  64.2749060  14.6866640
  60.3834580  62.9613180  14.5727000  68.8178320  49.8377150  29.9247270
  68.7043770  50.1571760  30.8198790  69.6348060  50.2389660  29.6284550
  71.5976810  66.9848680  29.4065960  72.3902130  66.4897910  29.1991920
  71.8909960  67.6638820  30.0141570  65.8554510  59.6348640   2.1691280
  65.0796610  59.1549080   2.4589850  66.5067440  58.9554290   1.9947440
  59.8720340  59.9468450   3.0467040  59.0405220  59.6917160   3.4463550
  60.4801320  60.0179220   3.7824960  59.8521600  63.9808540   3.2425060
  60.1549640  63.0906280   3.0635280  60.5965190  64.5378760   3.0147310
  56.2445300  57.5075990   2.7149130  56.8161410  56.7398190   2.7152770
  56.2446840  57.8064750   1.8055740  65.2963500  62.3105830   2.1761440
  65.2271780  61.3695770   2.0150570  66.0583360  62.4007240   2.7484010
  57.4870170  52.9160350   4.5018060  57.3073010  52.0186100   4.7820820
  57.0850250  53.4632220   5.1765010  58.1056840  55.4120850   3.1100400
  58.7866950  55.6759220   3.7287800  57.7904890  54.5721720   3.4438410
  62.2981410  56.4588210   2.1972990  62.8059630  56.9569180   2.8378010
  62.8294650  55.6823410   2.0212350  74.3992340  54.6293400   5.9002340
  73.6944510  55.0175110   5.3817450  74.6650260  55.3243690   6.5023270
  60.5817510  51.0986770   6.4636410  60.5835950  51.6159160   5.6582310
  59.7521820  50.6216950   6.4406340  61.8320360  60.7381950   4.6409910
  61.4989740  61.3650870   5.2830980  62.0087040  61.2643830   3.8611580
  70.3454270  54.5527030   2.1086250  69.6409840  54.8411920   2.6889360
  70.7066430  55.3627140   1.7485810  60.2632840  52.8096730   4.4706860
  60.6049650  53.6538780   4.1760730  59.3248650  52.9580470   4.5872200
  61.0439460  62.7062750   6.4559090  61.6613460  63.3813830   6.1743540
  60.1832580  63.1150730   6.3646590  71.9617050  64.1702160   4.3713730
  71.2780570  64.8401270   4.3630400  72.5011340  64.3682810   3.6058590
  73.4141190  53.9981820   2.4995460  72.4666100  54.0320800   2.6310890
  73.7391180  54.8120770   2.8844820  69.4975790  66.0146290   3.0858910
  69.5102950  65.6108580   2.2181170  68.9451010  66.7893580   2.9820340
  68.8961230  60.9176130   4.4141520  69.3130020  60.7036240   3.5794980
  69.6201050  61.1748920   4.9850140  72.8423330  59.3163350   4.5057760
  72.0141960  59.3856440   4.0307890  73.4373810  59.9017660   4.0373590
  69.8065340  56.1032670   5.4512630  69.3936520  56.9286380   5.7052620
  69.0741290  55.5177710   5.2588990  62.4079830  62.5760130   2.4770510
  62.1108120  61.9705600   1.7978290  63.3579650  62.6137440   2.3659870
  60.6526750  55.6635780   4.0930340  61.2041340  55.7731120   3.3183590
  61.1670260  56.0373380   4.8085570  70.4965440  66.1492000   6.1393610
  70.0196000  66.9564190   5.9466220  69.8127230  65.4970330   6.2919820
  61.4998260  62.3141820   9.1278310  60.6026790  62.5381790   9.3751710
  61.5251130  62.4376760   8.1789710  60.3269480  59.1855140   7.7035680
  60.1877250  60.0577940   8.0723080  59.4450840  58.8427950   7.5583620
  62.1249830  65.1276840   9.9120830  62.0965260  65.5319790   9.0449260
  61.9614800  64.1987200   9.7492430  74.0764650  65.9103940  11.2085000
  74.5524370  66.3886830  11.8874080  74.6971810  65.8421430  10.4830500
  56.2788130  60.9552690   3.6206590  56.3568550  61.0901460   2.6762310
  56.8929810  60.2468580   3.8134710  73.4797900  63.1016790   8.3685010
  73.6060960  62.8628670   7.4502190  73.5219280  62.2701330   8.8407090
  67.3414640  66.8044790   6.9379820  67.8559310  66.7152800   7.7402250
  66.4983720  67.1504490   7.2307730  73.3321910  55.1549250   9.3334750
  72.7166180  55.6628920   8.8050210  73.0118330  54.2547580   9.2760690
  56.3347650  61.9966860   6.1601050  56.4978690  61.5272220   5.3420420
  56.8000100  61.4890420   6.8249890  65.3936230  53.9941140   6.7996940
  64.9315600  54.2024160   7.6116880  64.9914340  53.1800490   6.4967610
  70.3940740  55.2150090   7.9293600  69.5434330  54.9155840   8.2502670
  70.2342530  55.4592100   7.0177420  67.4890450  56.7151840  10.0292390
  67.8143860  55.8815590   9.6894620  68.2770780  57.2380360  10.1770720
  63.1442320  51.6719950   3.0551220  63.4414650  52.5782780   2.9743240
  63.6927880  51.1838730   2.4410790  63.3379850  57.1491770   9.5903140
  63.2423450  56.2086500   9.4403540  64.1811830  57.3706840   9.1951210
  58.4690390  53.5605440   7.7436920  58.0753780  54.4080650   7.9509700
  57.7808790  52.9231810   7.9345560  65.0435440  53.6440410  10.8133660
  64.3533760  53.4512610  11.4479750  65.7867740  53.9275050  11.3457960
  55.7707440  51.4833900   1.7767000  55.4820490  52.0536760   2.4891980
  56.5153200  51.0038350   2.1398230  67.3198410  57.4838850   3.6487580
  66.5879530  57.9925660   3.9977680  66.9222750  56.6668830   3.3476360
  67.7824320  52.9372530   3.0610520  67.7997060  53.3881180   3.9052370
  67.5339900  52.0378170   3.2743960  71.2095070  50.3504710   8.8996900
  71.5340840  49.6194370   9.4254880  71.2451580  50.0318350   7.9977890
  57.9086630  61.3718290   8.3196860  57.5241420  60.7311960   8.9179820
  58.2198820  62.0754410   8.8891590  64.0583770  58.2194830   3.8005480
  64.4253900  57.7453400   4.5466820  63.8688830  59.0936400   4.1413820
  61.8483140  57.2603470   6.1189690  61.5440210  58.1395450   6.3440050
  62.8029600  57.3203260   6.1547130  71.1352910  60.4629820   2.5082930
  71.8552030  60.9585110   2.1179040  70.9334730  59.7847710   1.8636800
  66.5171710  60.5338880   8.3951930  66.4509020  59.6134550   8.1409520
  65.8876850  60.6314320   9.1096570  57.9046870  58.1006210   7.2661050
  57.5461810  58.7660060   7.8534390  57.6101430  57.2689760   7.6373670
  61.1059990  58.5590450  10.1500600  60.8060130  58.7047630   9.2528420
  61.8771230  57.9995740  10.0573990  66.4488440  63.3559450   8.1455730
  66.4632980  62.4240410   7.9274640  65.7413540  63.4419210   8.7845500
  72.6599650  59.9966790   7.4924310  71.9347840  60.5895570   7.2953700
  73.1875110  59.9890330   6.6937680  65.8822340  64.9977020   5.2396230
  66.5264560  65.2036400   5.9169650  66.2451780  64.2365420   4.7867080
  67.1554420  63.0009370   3.9573680  67.7976650  62.3002530   4.0705850
  67.6803770  63.7807810   3.7770570  68.9292040  63.8004270   7.1609740
  69.2648280  64.3870960   7.8387660  68.0092380  63.6696980   7.3907530
  56.4795440  51.5899450   7.9433150  55.7653960  51.7896370   8.5485760
  56.8990480  50.8139020   8.3147950  56.7668030  65.5779710   8.9299680
  56.8759150  64.6374450   8.7895070  56.1148590  65.8434460   8.2813410
  64.7580620  63.8495600  10.3297800  64.4377490  63.1304840  10.8743490
  64.0838980  64.5250670  10.4033860  67.9734220  54.0821760   5.6934600
  68.3415040  53.2616970   6.0214170  67.1132420  54.1423650   6.1090250
  64.9336210  56.7361350   5.9172570  65.4321460  57.2107170   6.5824420
  65.0759160  55.8124870   6.1242600  72.1403070  52.9529310   6.7600960
  71.6376670  53.6934710   7.0994770  72.9559730  53.3413310   6.4437750
  58.9126470  66.6448620  10.7419290  59.7139200  66.9660670  11.1554690
  58.3978290  66.2844200  11.4639200  67.7491100  62.7528490  10.6894700
  67.1429260  62.7760090   9.9490450  67.4445210  62.0211530  11.2261950
  69.1791470  66.4808780   9.3004110  70.1313220  66.3966800   9.2504350
  69.0319690  67.1450490   9.9737900  56.6324280  59.1322080   9.6855340
  57.1363300  58.5529360  10.2571570  55.8931700  59.4162310  10.2231710
  63.6862220  60.5393070   9.2190860  62.9207890  61.1078070   9.1345530
  63.8678180  60.2469280   8.3259090  70.8285570  62.2698400   9.7765880
  71.5695040  62.6074160   9.2733340  70.0658250  62.4390460   9.2235650
  58.6647360  57.2751670  10.5805410  58.7052700  56.9765540  11.4890640
  59.5192860  57.6759280  10.4212930  60.6053170  55.8543770   8.5479900
  60.0749630  55.3634720   7.9203240  61.2741240  56.2827970   8.0137830
  69.5031230  60.3213230   8.3121090  69.9172250  60.4758310   9.1611510
  68.5682230  60.4468450   8.4746870  69.9753400  57.6609390  10.3160240
  70.5574170  56.9061710  10.2280720  70.1515170  58.1916830   9.5391720
  61.0925470  52.8206140   8.6277190  60.9982340  52.2026890   7.9028060
  60.5122860  53.5472430   8.4007100  63.8586910  51.3779380   5.6604580
  63.4104210  51.4003640   4.8150130  63.2252110  50.9798400   6.2574880
  64.2646460  60.2733710   6.2817020  64.6834570  61.1166440   6.1093260
  63.3455090  60.4105750   6.0523800  66.6010360  58.0049890   7.6654860
  66.7206570  57.4091030   8.4049700  67.4604360  58.0419580   7.2456160
  68.9398260  58.5587080   6.2417370  68.4133480  59.0829700   5.6382510
  69.2829600  59.1914470   6.8727100  62.1153880  66.5786720   7.3974750
  61.5774970  67.3032780   7.0783450  62.3687840  66.1017060   6.6072090
  63.3679130  54.5471240   8.9230680  63.9578820  54.2387090   9.6108500
  62.5499370  54.0750990   9.0790580  68.1872560  54.1637050   9.1563700
  67.4988080  53.5018590   9.0913690  68.9078580  53.7175320   9.6012160
  64.9716090  67.8137930   7.6561400  64.8974790  68.7173070   7.9633770
  64.0694930  67.4949830   7.6283470  56.8633590  66.0083110   3.6976650
  56.4264580  66.1883910   4.5300800  57.4311270  66.7657730   3.5558370
  72.4995770  65.5100110   7.9853960  71.8997760  65.5692670   7.2417880
  72.6289670  64.5705090   8.1150810  71.1847410  62.2352090   6.0830120
  70.3707250  62.6649250   6.3455910  71.5921610  62.8470500   5.4699170
  57.7333950  58.9055910   4.5968870  58.1006990  58.8183310   5.4764890
  57.1644770  58.1422460   4.4975730  72.5337810  57.3740290   7.6099340
  72.3023900  57.1453040   6.7097290  72.7942360  58.2939840   7.5644230
  57.2849950  55.8165000   8.5027290  56.3906000  55.7831760   8.8421000
  57.8247500  56.0151790   9.2678540  70.9725880  52.5996720  10.3879040
  71.8496060  52.6080120  10.7713040  70.9846720  51.8627560   9.7771390
  72.5978870  56.5366130   4.7986610  71.6481580  56.5029670   4.9131600
  72.7791880  57.4466240   4.5636380  57.7889660  50.0913330   2.8510510
  58.4365850  49.5410710   2.4105670  58.2091500  50.3456480   3.6726320
  71.6842000  50.2854690   6.2080150  72.3214220  50.8988830   6.5739340
  71.8316890  50.3215350   5.2629380  57.5421660  50.2469000   5.5935830
  57.1936480  50.7032820   6.3594010  57.2109360  49.3526130   5.6758260
  59.1486030  63.4188600   9.7589020  59.1055660  63.0481510  10.6403480
  59.2797040  64.3566170   9.8990840  62.8492060  64.9748190   5.3598740
  62.6083420  65.2422750   4.4729260  63.7894700  65.1453920   5.4149600
  65.0546480  51.4380880   9.1155250  64.9935370  52.0302710   9.8650660
  65.9946860  51.3306840   8.9705510  67.6921040  51.0950940   8.7547540
  68.3061450  51.4130230   8.0928620  68.2370600  50.6099530   9.3743400
  74.1096220  66.9942570   6.1609380  73.6154500  67.3911440   5.4436510
  73.5009510  66.3691780   6.5546660  58.2142300  49.7745200   8.8686600
  58.7625290  49.5933250   8.1052710  58.2797610  48.9839310   9.4042910
  58.9874060  66.3650850   6.8786800  58.3934380  66.2335550   7.6176840
  58.9797900  65.5288990   6.4128900  68.4329080  49.6583080   5.0816830
  67.5588920  49.9918190   4.8789760  68.3239830  49.1856260   5.9068700
  69.3401060  51.8653950   6.4658550  69.0114420  51.0505710   6.0860280
  70.2883360  51.8223760   6.3424240  71.7935670  67.6365990   3.4396120
  71.3338640  68.3881800   3.0654140  71.1648130  66.9172460   3.3810920
  58.6186290  63.7309230   5.8294840  57.8920350  63.1114520   5.7620790
  58.6795440  64.1249840   4.9592920  62.2231390  65.9454230   2.6144250
  62.7396410  65.3341590   2.0892510  62.8728770  66.4483010   3.1055260
  64.9626890  66.8362720   3.4413230  65.2504700  66.5817020   2.5646240
  65.4750110  66.2840080   4.0318800  66.1803900  50.5752920   4.0209740
  65.3975690  51.0498420   4.3006500  65.8866830  49.6707750   3.9122920
  65.0299250  67.7578820  10.8081430  65.9566560  67.5223090  10.8517390
  65.0149680  68.5850820  10.3267460  62.2162860  50.4223570  10.5723310
  61.9347130  50.9257170   9.8084130  62.5982560  49.6245320  10.2065440
  68.8178320  49.8377150  11.1503780  68.7043770  50.1571760  12.0455300
  69.6348060  50.2389660  10.8541060  71.5976810  66.9848680  10.6322470
  72.3902130  66.4897910  10.4248430  71.8909960  67.6638820  11.2398080
  67.7236470  39.0826130  94.1599460  67.6430520  38.1680740  93.8891170
  67.3100890  39.5793200  93.4539170  69.8761940  45.2665340  94.8207860
  69.4143470  44.4952580  95.1495030  70.6887490  45.2931410  95.3260310
  58.2812290  36.1326850  90.7026880  57.3928990  36.4742820  90.6006760
  58.5653480  35.9327170  89.8107710  66.1025250  47.5523350  94.4411850
  65.4836690  48.0080850  93.8706290  66.9577030  47.7074810  94.0401550
  60.4573680  34.7158350  91.7365260  60.5640430  35.6162080  92.0434020
  59.5466040  34.6676320  91.4459910  70.1092790  33.8383160  93.2076160
  70.9302410  33.3479730  93.2501640  70.1426870  34.4280820  93.9608000
  66.9688600  42.4362590  91.8343760  66.3505870  42.9012040  91.2706480
  67.4811850  43.1290070  92.2513270  56.3371800  43.1219120  89.2083390
  55.9599780  43.6106220  88.4768290  56.5944870  43.7944400  89.8389920
  63.9460730  31.5235510  94.6668900  64.2535710  30.9682400  93.9504400
  63.0161430  31.6579970  94.4841890  70.7921210  43.9619020  92.0466530
  70.6817540  43.0193350  92.1715950  70.7889460  44.3234660  92.9329290
  66.3341490  39.5884340  91.4029020  65.4070770  39.5221720  91.6317490
  66.4866310  40.5264470  91.2884260  66.3210570  35.8601340  88.3996180
  65.3814240  36.0215300  88.4848640  66.6393830  36.5787020  87.8532170
  70.3638780  41.1504640  91.9064270  69.7451200  40.8124190  91.2590570
  70.3463230  40.5064400  92.6143460  61.9398130  40.1149080  94.1848750
  61.5355130  39.4026330  93.6894650  62.0261250  39.7702320  95.0736790
  68.5403480  40.3891450  88.9137020  68.9796760  39.5513880  88.7674840
  69.2531900  41.0220850  89.0001160  66.6498860  45.3287520  92.8818260
  67.0894770  46.0711850  92.4673650  66.5885750  45.5714090  93.8057220
  72.1220620  31.6434260  87.2278060  71.8093280  31.7361090  88.1277130
  72.8833090  32.2215290  87.1775490  58.6402760  39.0094060  91.6855400
  58.5200360  39.7356150  91.0736670  58.3303650  38.2396970  91.2083310
  57.5235760  43.8809390  93.9030220  57.1163840  44.0223980  93.0483820
  58.4148770  43.5969550  93.7001430  69.3169040  48.3156640  90.2381270
  69.1570180  48.0259580  91.1363100  69.1515750  47.5396770  89.7026500
  61.7957420  48.0955170  92.0152890  61.6199900  47.1790710  91.8020690
  60.9413160  48.4542460  92.2550690  69.0195170  45.8244200  88.7979270
  68.3260330  45.8221490  88.1381550  69.7618030  45.4003520  88.3673440
  68.5845100  47.4506910  92.8727760  69.0402050  46.6696290  93.1866380
  68.9237620  48.1613730  93.4168940  61.1066420  32.3529130  95.0679070
  60.6634570  33.1338670  94.7363590  61.6651410  32.6759020  95.7750010
  64.2225240  31.9739830  89.9484900  63.5979420  31.9699700  90.6738210
  64.1355360  31.1070790  89.5520870  60.8980640  37.4762700  92.7960320
  60.6721560  37.2599870  93.7006940  60.1173170  37.9091160  92.4506290
  68.1278400  37.4826070  91.3950970  67.5287290  38.2061870  91.2114590
  68.6758010  37.4202850  90.6127420  66.7343270  36.1189610  93.4254250
  67.1272840  36.4361810  92.6122940  67.0960120  35.2401490  93.5398770
  55.9577670  36.6510530  86.8587170  55.8752340  37.5941290  87.0002160
  55.6060730  36.5085440  85.9799520  63.7575800  35.3849560  95.9257520
  63.7611860  34.9439510  95.0762060  64.6526920  35.7066890  96.0329340
  59.6078180  35.2676050  94.8851730  59.2678230  35.7451280  95.6418780
  58.8455500  34.8141170  94.5252830  63.8195950  36.3861640  88.9164280
  63.9408770  36.3448120  89.8650100  63.4344460  37.2485790  88.7611010
  62.8317450  38.6962780  88.3147580  62.2634350  38.2481030  87.6883490
  63.5406450  39.0555560  87.7812730  56.9224260  34.1895030  93.8016400
  56.6371180  33.8250700  94.6395020  56.8603120  33.4575490  93.1879540
  60.3764930  42.6920970  90.5873990  59.6027190  42.1518590  90.4272710
  61.1059560  42.1727580  90.2491750  66.5962850  33.0824290  90.5229770
  65.7827460  32.5837460  90.4475080  66.4024800  33.9222540  90.1066120
  69.3111240  37.4543940  88.8191930  70.1990860  37.7661170  88.6443270
  69.2816330  36.5816190  88.4272510  60.4202330  42.3601350  94.2252800
  60.9381000  41.5569610  94.1709690  59.9686350  42.2980490  95.0669630
  65.3071830  43.6267630  89.4980100  65.6487530  44.3709860  89.0023420
  64.4784540  43.9398750  89.8604930  71.5825510  38.7655780  88.2871790
  71.4989230  39.1970000  87.4368230  72.3019700  39.2254130  88.7198610
  72.6112760  45.6198040  91.0153920  71.9688920  44.9653660  91.2897640
  72.2243420  46.0253130  90.2394590  68.1899240  42.9483470  94.8625610
  68.5423060  42.3511600  94.2026980  67.3061570  42.6227700  95.0333860
  64.2762520  43.7081160  92.2696020  64.9633650  44.2550370  92.6503610
  63.4894940  44.2521890  92.3045630  56.4154920  39.3253980  87.7613100
  57.2849770  39.6078780  88.0449020  55.9245240  40.1389850  87.6461910
  63.5789730  40.7127190  91.8821380  64.0352510  41.5232440  92.1081570
  63.2277940  40.3950330  92.7139870  59.4801510  31.0564840  92.3543900
  59.3516140  31.0482740  93.3028820  58.6563530  31.3947930  92.0034910
  71.0010140  44.5114500  87.5530270  70.7747720  43.7944940  88.1454910
  70.6106340  44.2626940  86.7152020  56.7826170  48.5381360  88.3274730
  57.1423810  49.1370700  87.6732000  56.6418510  49.0841250  89.1009760
  70.5826390  42.4286440  89.2144430  70.2948090  42.8899130  90.0022310
  71.3778560  41.9684210  89.4828650  62.7994790  45.9212560  89.1448400
  62.7904890  46.6542250  88.5292910  61.8793150  45.6744140  89.2375360
  58.4001430  41.1427450  89.8895160  57.7929380  41.8826350  89.8990460
  58.8750780  41.2326810  89.0633360  71.3396250  34.2635210  90.3739610
  70.7109410  34.3680880  89.6597840  70.8448170  34.4831990  91.1633490
  65.7854390  45.9840800  87.8073590  65.8866370  45.7804790  86.8775570
  64.8856130  45.7299080  88.0121370  63.3080280  36.5421160  91.7897490
  62.5996430  37.0107500  92.2311100  63.5924760  35.8843170  92.4242680
  67.3395710  33.2671820  93.2293280  67.2163490  33.2857950  92.2802790
  68.2880270  33.3150760  93.3491680  64.4272500  48.5027120  92.5021260
  64.6814000  48.4648510  91.5800630  63.4784980  48.3760450  92.4949510
  61.5115300  34.8506240  89.1648200  62.3605830  35.2876390  89.0988390
  61.1446570  35.1626500  89.9920260  70.4325080  39.4219000  94.0779770
  69.4915220  39.4369230  94.2527460  70.7469150  38.6354960  94.5240070
  60.4106720  41.1038600  87.6383730  61.1769990  40.9919960  88.2009160
  60.4881410  40.4076570  86.9860500  59.1053480  38.5363670  88.3216620
  59.1857070  37.5891180  88.4334020  59.9973230  38.8670550  88.4277280
  59.9068190  48.6859060  95.4251160  60.6430670  48.1374520  95.6959730
  60.2909110  49.5515070  95.2857150  56.7913670  44.7532630  91.2992670
  55.8653450  44.9953770  91.2898080  57.2570100  45.5806890  91.1777420
  63.0170500  47.8589370  87.2476730  63.8099110  48.1478200  86.7958520
  62.4974850  47.4281540  86.5689210  72.0700670  47.0859500  88.6713470
  71.7842180  46.6724640  87.8567650  71.8720220  48.0147210  88.5513990
  63.5347900  43.0792780  87.1119080  63.4298540  42.4645130  87.8380460
  63.3672120  42.5558670  86.3282090  66.7750630  42.1412810  87.7161070
  66.2260730  42.5882110  88.3603810  67.3969890  41.6362060  88.2398740
  62.4425750  41.1003730  89.6126370  62.8642170  40.9343600  90.4557760
  62.5676590  40.2903960  89.1181510  64.9553390  40.1241340  86.8603470
  65.4759050  39.4090360  86.4944620  65.6021790  40.7627210  87.1603980
  61.3384650  37.1736960  86.5584530  61.1373710  36.3104320  86.9197870
  61.1676700  37.0870320  85.6206130  68.8172960  31.9845190  89.0871410
  69.0975250  31.1413090  89.4430830  68.0438690  32.2168300  89.6010160
  60.1367450  34.2737580  86.5462410  60.4393350  34.2805010  85.6381560
  60.8762040  33.9235440  87.0430070  63.3552380  33.2172200  87.5318610
  63.0074380  32.5396190  86.9521060  63.5565150  32.7561710  88.3462000
  65.5201420  48.2052950  89.1505210  66.4152210  48.5437920  89.1723970
  65.5519050  47.4832360  88.5229490  59.1597580  43.5780000  87.3792210
  59.5972450  44.1209670  88.0349790  59.6445310  42.7526950  87.3888550
  56.3743380  46.3669030  94.8312470  56.7046390  45.4990090  94.5991110
  56.8034380  46.5727550  95.6617430  60.9705300  44.6978040  92.4914440
  60.6700840  44.5743010  93.3918350  60.8642790  43.8386630  92.0830170
  73.7397220  44.4774440  87.1941120  72.9090180  44.5451090  87.6648350
  73.9169050  45.3678560  86.8907980  73.1953680  41.2221920  89.6975320
  73.9572590  41.7918570  89.8035010  73.2108050  40.6549120  90.4683630
  56.6958020  39.7459850  93.9282980  56.0406860  39.4771490  93.2842680
  57.5335970  39.6364330  93.4784960  74.2013650  42.0772020  94.5417250
  74.5722480  41.2939340  94.1353220  74.8415580  42.7661120  94.3634550
  73.2472850  41.5156290  86.8547840  73.5221690  42.4235170  86.7267060
  73.0583590  41.4518820  87.7909830  69.6448460  34.5401140  88.1501470
  70.0633340  34.3532120  87.3098130  69.3384520  33.6880190  88.4604400
  73.1438190  39.4525280  91.8477270  72.7681790  38.6853210  91.4158560
  72.4141310  39.8347980  92.3352200  55.9096100  36.9558780  89.8708310
  55.0060180  37.2188980  89.6959970  56.3936720  37.2269950  89.0908270
  72.4189150  37.6782770  95.1484510  72.9426630  37.1845420  94.5174680
  73.0048570  37.8133130  95.8932080  58.4523310  36.0124320  87.7802690
  59.1615010  35.5907540  87.2949970  57.7363250  36.0799550  87.1486040
  58.0997470  32.0663650  86.8205340  58.8225600  32.6072590  87.1386560
  58.3721990  31.7927070  85.9446880  71.9089120  36.9356120  91.0876920
  72.4048240  36.7026990  91.8725800  71.7105190  36.0967960  90.6714560
  73.3376280  35.5717070  93.6214600  73.2275560  35.4173110  94.5596870
  74.0983870  35.0438010  93.3790010  74.2266550  33.4024990  86.8620740
  75.1515860  33.2706170  86.6539030  74.2042340  33.4817810  87.8157190
  74.3005040  34.1735650  89.4877450  73.5056540  34.1080770  90.0170360
  74.5048320  35.1086290  89.4762800  71.2423460  48.2127200  93.4815840
  71.8382530  47.8911770  92.8050260  71.5001610  47.7399020  94.2729110
  70.7324970  32.5032530  95.9376280  71.1733060  32.4477630  95.0897880
  70.4632560  33.4190540  96.0086460  72.5963540  32.1347770  93.9485100
  72.5351940  31.1908990  93.8016120  73.3755570  32.2427860  94.4938560
  56.9016290  48.2740130  92.9109050  56.7338330  47.6410810  93.6090940
  56.0350800  48.4799530  92.5603240  57.5244310  32.1056910  90.4140910
  58.2823670  32.2185790  89.8404940  57.0621480  32.9426110  90.3684340
  64.0658120  34.2196180  93.4043220  63.2532630  33.8453070  93.0639100
  64.5699760  33.4641260  93.7064410  68.5683100  30.8838630  94.6426290
  69.1712470  31.4558840  95.1174810  67.8276090  31.4478070  94.4200190
  71.7117700  31.2860190  89.9166570  71.9068330  32.1843640  90.1834000
  70.9247570  31.0547270  90.4099520  58.5078990  46.9673360  90.3559190
  57.9826610  47.3481390  89.6521150  58.4323570  47.5924130  91.0768900
  59.8969460  32.6320960  88.9542880  60.4262220  31.8450760  88.8250830
  60.5297780  33.3112150  89.1878410  62.0907300  32.3696100  92.0088270
  61.4610040  31.6683410  92.1758400  61.5512440  33.1300230  91.7921430
  73.2644310  48.5260900  91.6773130  73.4396500  47.8398640  91.0334050
  72.5665880  49.0507950  91.2849800  61.1071960  48.9155740  89.2308440
  61.8390780  48.6315020  88.6832330  61.3665630  48.6769020  90.1207820
  60.2686750  45.0320470  89.2354770  59.6395630  45.5005570  89.7840600
  60.3834580  44.1869690  89.6700960  67.7236470  39.0826130  75.3855970
  67.6430520  38.1680740  75.1147680  67.3100890  39.5793200  74.6795680
  65.8554510  40.8605150  77.2665240  65.0796610  40.3805590  77.5563810
  66.5067440  40.1810800  77.0921400  59.8720340  41.1724960  78.1441000
  59.0405220  40.9173670  78.5437510  60.4801320  41.2435730  78.8798920
  69.8761940  45.2665340  76.0464370  69.4143470  44.4952580  76.3751540
  70.6887490  45.2931410  76.5516820  59.8521600  45.2065050  78.3399020
  60.1549640  44.3162790  78.1609240  60.5965190  45.7635270  78.1121270
  58.2812290  36.1326850  71.9283390  57.3928990  36.4742820  71.8263270
  58.5653480  35.9327170  71.0364220  56.2445300  38.7332500  77.8123090
  56.8161410  37.9654700  77.8126730  56.2446840  39.0321260  76.9029700
  66.1025250  47.5523350  75.6668360  65.4836690  48.0080850  75.0962800
  66.9577030  47.7074810  75.2658060  65.2963500  43.5362340  77.2735400
  65.2271780  42.5952280  77.1124530  66.0583360  43.6263750  77.8457970
  57.4870170  34.1416860  79.5992020  57.3073010  33.2442610  79.8794780
  57.0850250  34.6888730  80.2738970  66.3268670  36.3432720  77.5004330
  66.7033490  35.4704600  77.3878000  66.2288180  36.6791420  76.6094770
  60.4573680  34.7158350  72.9621770  60.5640430  35.6162080  73.2690530
  59.5466040  34.6676320  72.6716420  70.1092790  33.8383160  74.4332670
  70.9302410  33.3479730  74.4758150  70.1426870  34.4280820  75.1864510
  58.1056840  36.6377360  78.2074360  58.7866950  36.9015730  78.8261760
  57.7904890  35.7978230  78.5412370  62.2981410  37.6844720  77.2946950
  62.8059630  38.1825690  77.9351970  62.8294650  36.9079920  77.1186310
  74.3992340  35.8549910  80.9976300  73.6944510  36.2431620  80.4791410
  74.6650260  36.5500200  81.5997230  60.5817510  32.3243280  81.5610370
  60.5835950  32.8415670  80.7556270  59.7521820  31.8473460  81.5380300
  66.9688600  42.4362590  73.0600270  66.3505870  42.9012040  72.4962990
  67.4811850  43.1290070  73.4769780  61.8320360  41.9638460  79.7383870
  61.4989740  42.5907380  80.3804940  62.0087040  42.4900340  78.9585540
  70.3454270  35.7783540  77.2060210  69.6409840  36.0668430  77.7863320
  70.7066430  36.5883650  76.8459770  60.2632840  34.0353240  79.5680820
  60.6049650  34.8795290  79.2734690  59.3248650  34.1836980  79.6846160
  61.0439460  43.9319260  81.5533050  61.6613460  44.6070340  81.2717500
  60.1832580  44.3407240  81.4620550  56.3371800  43.1219120  70.4339900
  55.9599780  43.6106220  69.7024800  56.5944870  43.7944400  71.0646430
  71.9617050  45.3958670  79.4687690  71.2780570  46.0657780  79.4604360
  72.5011340  45.5939320  78.7032550  73.4141190  35.2238330  77.5969420
  72.4666100  35.2577310  77.7284850  73.7391180  36.0377280  77.9818780
  63.9460730  31.5235510  75.8925410  64.2535710  30.9682400  75.1760910
  63.0161430  31.6579970  75.7098400  69.4975790  47.2402800  78.1832870
  69.5102950  46.8365090  77.3155130  68.9451010  48.0150090  78.0794300
  70.7921210  43.9619020  73.2723040  70.6817540  43.0193350  73.3972460
  70.7889460  44.3234660  74.1585800  68.8961230  42.1432640  79.5115480
  69.3130020  41.9292750  78.6768940  69.6201050  42.4005430  80.0824100
  66.3341490  39.5884340  72.6285530  65.4070770  39.5221720  72.8574000
  66.4866310  40.5264470  72.5140770  66.3210570  35.8601340  69.6252690
  65.3814240  36.0215300  69.7105150  66.6393830  36.5787020  69.0788680
  72.8423330  40.5419860  79.6031720  72.0141960  40.6112950  79.1281850
  73.4373810  41.1274170  79.1347550  70.3638780  41.1504640  73.1320780
  69.7451200  40.8124190  72.4847080  70.3463230  40.5064400  73.8399970
  69.8065340  37.3289180  80.5486590  69.3936520  38.1542890  80.8026580
  69.0741290  36.7434220  80.3562950  61.9398130  40.1149080  75.4105260
  61.5355130  39.4026330  74.9151160  62.0261250  39.7702320  76.2993300
  62.4079830  43.8016640  77.5744470  62.1108120  43.1962110  76.8952250
  63.3579650  43.8393950  77.4633830  60.6526750  36.8892290  79.1904300
  61.2041340  36.9987630  78.4157550  61.1670260  37.2629890  79.9059530
  70.4965440  47.3748510  81.2367570  70.0196000  48.1820700  81.0440180
  69.8127230  46.7226840  81.3893780  61.4998260  43.5398330  84.2252270
  60.6026790  43.7638300  84.4725670  61.5251130  43.6633270  83.2763670
  68.5403480  40.3891450  70.1393530  68.9796760  39.5513880  69.9931350
  69.2531900  41.0220850  70.2257670  60.3269480  40.4111650  82.8009640
  60.1877250  41.2834450  83.1697040  59.4450840  40.0684460  82.6557580
  66.6498860  45.3287520  74.1074770  67.0894770  46.0711850  73.6930160
  66.5885750  45.5714090  75.0313730  62.1249830  46.3533350  85.0094790
  62.0965260  46.7576300  84.1423220  61.9614800  45.4243710  84.8466390
  72.1220620  31.6434260  68.4534570  71.8093280  31.7361090  69.3533640
  72.8833090  32.2215290  68.4032000  58.6402760  39.0094060  72.9111910
  58.5200360  39.7356150  72.2993180  58.3303650  38.2396970  72.4339820
  74.0764650  47.1360450  86.3058960  74.5524370  47.6143340  86.9848040
  74.6971810  47.0677940  85.5804460  56.2788130  42.1809200  78.7180550
  56.3568550  42.3157970  77.7736270  56.8929810  41.4725090  78.9108670
  57.5235760  43.8809390  75.1286730  57.1163840  44.0223980  74.2740330
  58.4148770  43.5969550  74.9257940  73.4797900  44.3273300  83.4658970
  73.6060960  44.0885180  82.5476150  73.5219280  43.4957840  83.9381050
  67.3414640  48.0301300  82.0353780  67.8559310  47.9409310  82.8376210
  66.4983720  48.3761000  82.3281690  69.3169040  48.3156640  71.4637780
  69.1570180  48.0259580  72.3619610  69.1515750  47.5396770  70.9283010
  61.7957420  48.0955170  73.2409400  61.6199900  47.1790710  73.0277200
  60.9413160  48.4542460  73.4807200  69.0195170  45.8244200  70.0235780
  68.3260330  45.8221490  69.3638060  69.7618030  45.4003520  69.5929950
  68.5845100  47.4506910  74.0984270  69.0402050  46.6696290  74.4122890
  68.9237620  48.1613730  74.6425450  73.3321910  36.3805760  84.4308710
  72.7166180  36.8885430  83.9024170  73.0118330  35.4804090  84.3734650
  56.3347650  43.2223370  81.2575010  56.4978690  42.7528730  80.4394380
  56.8000100  42.7146930  81.9223850  61.1066420  32.3529130  76.2935580
  60.6634570  33.1338670  75.9620100  61.6651410  32.6759020  77.0006520
  65.3936230  35.2197650  81.8970900  64.9315600  35.4280670  82.7090840
  64.9914340  34.4057000  81.5941570  70.3940740  36.4406600  83.0267560
  69.5434330  36.1412350  83.3476630  70.2342530  36.6848610  82.1151380
  67.4890450  37.9408350  85.1266350  67.8143860  37.1072100  84.7868580
  68.2770780  38.4636870  85.2744680  64.2225240  31.9739830  71.1741410
  63.5979420  31.9699700  71.8994720  64.1355360  31.1070790  70.7777380
  63.1442320  32.8976460  78.1525180  63.4414650  33.8039290  78.0717200
  63.6927880  32.4095240  77.5384750  60.8980640  37.4762700  74.0216830
  60.6721560  37.2599870  74.9263450  60.1173170  37.9091160  73.6762800
  68.1278400  37.4826070  72.6207480  67.5287290  38.2061870  72.4371100
  68.6758010  37.4202850  71.8383930  63.3379850  38.3748280  84.6877100
  63.2423450  37.4343010  84.5377500  64.1811830  38.5963350  84.2925170
  66.7343270  36.1189610  74.6510760  67.1272840  36.4361810  73.8379450
  67.0960120  35.2401490  74.7655280  58.4690390  34.7861950  82.8410880
  58.0753780  35.6337160  83.0483660  57.7808790  34.1488320  83.0319520
  65.0435440  34.8696920  85.9107620  64.3533760  34.6769120  86.5453710
  65.7867740  35.1531560  86.4431920  55.7707440  32.7090410  76.8740960
  55.4820490  33.2793270  77.5865940  56.5153200  32.2294860  77.2372190
  55.9577670  36.6510530  68.0843680  55.8752340  37.5941290  68.2258670
  55.6060730  36.5085440  67.2056030  67.3198410  38.7095360  78.7461540
  66.5879530  39.2182170  79.0951640  66.9222750  37.8925340  78.4450320
  63.7575800  35.3849560  77.1514030  63.7611860  34.9439510  76.3018570
  64.6526920  35.7066890  77.2585850  59.6078180  35.2676050  76.1108240
  59.2678230  35.7451280  76.8675290  58.8455500  34.8141170  75.7509340
  63.8195950  36.3861640  70.1420790  63.9408770  36.3448120  71.0906610
  63.4344460  37.2485790  69.9867520  67.7824320  34.1629040  78.1584480
  67.7997060  34.6137690  79.0026330  67.5339900  33.2634680  78.3717920
  62.8317450  38.6962780  69.5404090  62.2634350  38.2481030  68.9140000
  63.5406450  39.0555560  69.0069240  71.2095070  31.5761220  83.9970860
  71.5340840  30.8450880  84.5228840  71.2451580  31.2574860  83.0951850
  57.9086630  42.5974800  83.4170820  57.5241420  41.9568470  84.0153780
  58.2198820  43.3010920  83.9865550  64.0583770  39.4451340  78.8979440
  64.4253900  38.9709910  79.6440780  63.8688830  40.3192910  79.2387780
  56.9224260  34.1895030  75.0272910  56.6371180  33.8250700  75.8651530
  56.8603120  33.4575490  74.4136050  61.8483140  38.4859980  81.2163650
  61.5440210  39.3651960  81.4414010  62.8029600  38.5459770  81.2521090
  60.3764930  42.6920970  71.8130500  59.6027190  42.1518590  71.6529220
  61.1059560  42.1727580  71.4748260  71.1352910  41.6886330  77.6056890
  71.8552030  42.1841620  77.2153000  70.9334730  41.0104220  76.9610760
  66.5962850  33.0824290  71.7486280  65.7827460  32.5837460  71.6731590
  66.4024800  33.9222540  71.3322630  66.5171710  41.7595390  83.4925890
  66.4509020  40.8391060  83.2383480  65.8876850  41.8570830  84.2070530
  69.3111240  37.4543940  70.0448440  70.1990860  37.7661170  69.8699780
  69.2816330  36.5816190  69.6529020  60.4202330  42.3601350  75.4509310
  60.9381000  41.5569610  75.3966200  59.9686350  42.2980490  76.2926140
  65.3071830  43.6267630  70.7236610  65.6487530  44.3709860  70.2279930
  64.4784540  43.9398750  71.0861440  57.9046870  39.3262720  82.3635010
  57.5461810  39.9916570  82.9508350  57.6101430  38.4946270  82.7347630
  61.1059990  39.7846960  85.2474560  60.8060130  39.9304140  84.3502380
  61.8771230  39.2252250  85.1547950  66.4488440  44.5815960  83.2429690
  66.4632980  43.6496920  83.0248600  65.7413540  44.6675720  83.8819460
  71.5825510  38.7655780  69.5128300  71.4989230  39.1970000  68.6624740
  72.3019700  39.2254130  69.9455120  72.6599650  41.2223300  82.5898270
  71.9347840  41.8152080  82.3927660  73.1875110  41.2146840  81.7911640
  72.6112760  45.6198040  72.2410430  71.9688920  44.9653660  72.5154150
  72.2243420  46.0253130  71.4651100  68.1899240  42.9483470  76.0882120
  68.5423060  42.3511600  75.4283490  67.3061570  42.6227700  76.2590370
  64.2762520  43.7081160  73.4952530  64.9633650  44.2550370  73.8760120
  63.4894940  44.2521890  73.5302140  56.4154920  39.3253980  68.9869610
  57.2849770  39.6078780  69.2705530  55.9245240  40.1389850  68.8718420
  63.5789730  40.7127190  73.1077890  64.0352510  41.5232440  73.3338080
  63.2277940  40.3950330  73.9396380  65.8822340  46.2233530  80.3370190
  66.5264560  46.4292910  81.0143610  66.2451780  45.4621930  79.8841040
  59.4801510  31.0564840  73.5800410  59.3516140  31.0482740  74.5285330
  58.6563530  31.3947930  73.2291420  67.1554420  44.2265880  79.0547640
  67.7976650  43.5259040  79.1679810  67.6803770  45.0064320  78.8744530
  71.0010140  44.5114500  68.7786780  70.7747720  43.7944940  69.3711420
  70.6106340  44.2626940  67.9408530  68.9292040  45.0260780  82.2583700
  69.2648280  45.6127470  82.9361620  68.0092380  44.8953490  82.4881490
  56.7826170  48.5381360  69.5531240  57.1423810  49.1370700  68.8988510
  56.6418510  49.0841250  70.3266270  56.4795440  32.8155960  83.0407110
  55.7653960  33.0152880  83.6459720  56.8990480  32.0395530  83.4121910
  70.5826390  42.4286440  70.4400940  70.2948090  42.8899130  71.2278820
  71.3778560  41.9684210  70.7085160  56.7668030  46.8036220  84.0273640
  56.8759150  45.8630960  83.8869030  56.1148590  47.0690970  83.3787370
  64.7580620  45.0752110  85.4271760  64.4377490  44.3561350  85.9717450
  64.0838980  45.7507180  85.5007820  62.7994790  45.9212560  70.3704910
  62.7904890  46.6542250  69.7549420  61.8793150  45.6744140  70.4631870
  58.4001430  41.1427450  71.1151670  57.7929380  41.8826350  71.1246970
  58.8750780  41.2326810  70.2889870  67.9734220  35.3078270  80.7908560
  68.3415040  34.4873480  81.1188130  67.1132420  35.3680160  81.2064210
  71.3396250  34.2635210  71.5996120  70.7109410  34.3680880  70.8854350
  70.8448170  34.4831990  72.3890000  65.7854390  45.9840800  69.0330100
  65.8866370  45.7804790  68.1032080  64.8856130  45.7299080  69.2377880
  63.3080280  36.5421160  73.0154000  62.5996430  37.0107500  73.4567610
  63.5924760  35.8843170  73.6499190  64.9336210  37.9617860  81.0146530
  65.4321460  38.4363680  81.6798380  65.0759160  37.0381380  81.2216560
  67.3395710  33.2671820  74.4549790  67.2163490  33.2857950  73.5059300
  68.2880270  33.3150760  74.5748190  64.4272500  48.5027120  73.7277770
  64.6814000  48.4648510  72.8057140  63.4784980  48.3760450  73.7206020
  61.5115300  34.8506240  70.3904710  62.3605830  35.2876390  70.3244900
  61.1446570  35.1626500  71.2176770  72.1403070  34.1785820  81.8574920
  71.6376670  34.9191220  82.1968730  72.9559730  34.5669820  81.5411710
  70.4325080  39.4219000  75.3036280  69.4915220  39.4369230  75.4783970
  70.7469150  38.6354960  75.7496580  60.4106720  41.1038600  68.8640240
  61.1769990  40.9919960  69.4265670  60.4881410  40.4076570  68.2117010
  59.1053480  38.5363670  69.5473130  59.1857070  37.5891180  69.6590530
  59.9973230  38.8670550  69.6533790  72.4350660  46.5927850  76.9790540
  72.5598080  47.4159020  77.4514350  73.3016220  46.3818580  76.6314690
  59.9068190  48.6859060  76.6507670  60.6430670  48.1374520  76.9216240
  60.2909110  49.5515070  76.5113660  56.7913670  44.7532630  72.5249180
  55.8653450  44.9953770  72.5154590  57.2570100  45.5806890  72.4033930
  58.9126470  47.8705130  85.8393250  59.7139200  48.1917180  86.2528650
  58.3978290  47.5100710  86.5613160  63.0170500  47.8589370  68.4733240
  63.8099110  48.1478200  68.0215030  62.4974850  47.4281540  67.7945720
  67.7491100  43.9785000  85.7868660  67.1429260  44.0016600  85.0464410
  67.4445210  43.2468040  86.3235910  69.1791470  47.7065290  84.3978070
  70.1313220  47.6223310  84.3478310  69.0319690  48.3707000  85.0711860
  72.0700670  47.0859500  69.8969980  71.7842180  46.6724640  69.0824160
  71.8720220  48.0147210  69.7770500  56.6324280  40.3578590  84.7829300
  57.1363300  39.7785870  85.3545530  55.8931700  40.6418820  85.3205670
  63.5347900  43.0792780  68.3375590  63.4298540  42.4645130  69.0636970
  63.3672120  42.5558670  67.5538600  63.6862220  41.7649580  84.3164820
  62.9207890  42.3334580  84.2319490  63.8678180  41.4725790  83.4233050
  66.7750630  42.1412810  68.9417580  66.2260730  42.5882110  69.5860320
  67.3969890  41.6362060  69.4655250  70.8285570  43.4954910  84.8739840
  71.5695040  43.8330670  84.3707300  70.0658250  43.6646970  84.3209610
  58.6647360  38.5008180  85.6779370  58.7052700  38.2022050  86.5864600
  59.5192860  38.9015790  85.5186890  62.4425750  41.1003730  70.8382880
  62.8642170  40.9343600  71.6814270  62.5676590  40.2903960  70.3438020
  60.6053170  37.0800280  83.6453860  60.0749630  36.5891230  83.0177200
  61.2741240  37.5084480  83.1111790  64.9553390  40.1241340  68.0859980
  65.4759050  39.4090360  67.7201130  65.6021790  40.7627210  68.3860490
  69.5031230  41.5469740  83.4095050  69.9172250  41.7014820  84.2585470
  68.5682230  41.6724960  83.5720830  69.9753400  38.8865900  85.4134200
  70.5574170  38.1318220  85.3254680  70.1515170  39.4173340  84.6365680
  61.0925470  34.0462650  83.7251150  60.9982340  33.4283400  83.0002020
  60.5122860  34.7728940  83.4981060  63.8586910  32.6035890  80.7578540
  63.4104210  32.6260150  79.9124090  63.2252110  32.2054910  81.3548840
  64.2646460  41.4990220  81.3790980  64.6834570  42.3422950  81.2067220
  63.3455090  41.6362260  81.1497760  66.6010360  39.2306400  82.7628820
  66.7206570  38.6347540  83.5023660  67.4604360  39.2676090  82.3430120
  68.9398260  39.7843590  81.3391330  68.4133480  40.3086210  80.7356470
  69.2829600  40.4170980  81.9701060  61.3384650  37.1736960  67.7841040
  61.1373710  36.3104320  68.1454380  61.1676700  37.0870320  66.8462640
  62.1153880  47.8043230  82.4948710  61.5774970  48.5289290  82.1757410
  62.3687840  47.3273570  81.7046050  63.3679130  35.7727750  84.0204640
  63.9578820  35.4643600  84.7082460  62.5499370  35.3007500  84.1764540
  68.1872560  35.3893560  84.2537660  67.4988080  34.7275100  84.1887650
  68.9078580  34.9431830  84.6986120  68.8172960  31.9845190  70.3127920
  69.0975250  31.1413090  70.6687340  68.0438690  32.2168300  70.8266670
  60.1367450  34.2737580  67.7718920  60.4393350  34.2805010  66.8638070
  60.8762040  33.9235440  68.2686580  64.9716090  49.0394440  82.7535360
  64.8974790  49.9429580  83.0607730  64.0694930  48.7206340  82.7257430
  63.3552380  33.2172200  68.7575120  63.0074380  32.5396190  68.1777570
  63.5565150  32.7561710  69.5718510  65.5201420  48.2052950  70.3761720
  66.4152210  48.5437920  70.3980480  65.5519050  47.4832360  69.7486000
  59.1597580  43.5780000  68.6048720  59.5972450  44.1209670  69.2606300
  59.6445310  42.7526950  68.6145060  56.3743380  46.3669030  76.0568980
  56.7046390  45.4990090  75.8247620  56.8034380  46.5727550  76.8873940
  60.9705300  44.6978040  73.7170950  60.6700840  44.5743010  74.6174860
  60.8642790  43.8386630  73.3086680  56.8633590  47.2339620  78.7950610
  56.4264580  47.4140420  79.6274760  57.4311270  47.9914240  78.6532330
  72.4995770  46.7356620  83.0827920  71.8997760  46.7949180  82.3391840
  72.6289670  45.7961600  83.2124770  73.7397220  44.4774440  68.4197630
  72.9090180  44.5451090  68.8904860  73.9169050  45.3678560  68.1164490
  73.1953680  41.2221920  70.9231830  73.9572590  41.7918570  71.0291520
  73.2108050  40.6549120  71.6940140  56.6958020  39.7459850  75.1539490
  56.0406860  39.4771490  74.5099190  57.5335970  39.6364330  74.7041470
  74.2013650  42.0772020  75.7673760  74.5722480  41.2939340  75.3609730
  74.8415580  42.7661120  75.5891060  71.1847410  43.4608600  81.1804080
  70.3707250  43.8905760  81.4429870  71.5921610  44.0727010  80.5673130
  73.2472850  41.5156290  68.0804350  73.5221690  42.4235170  67.9523570
  73.0583590  41.4518820  69.0166340  69.6448460  34.5401140  69.3757980
  70.0633340  34.3532120  68.5354640  69.3384520  33.6880190  69.6860910
  73.1438190  39.4525280  73.0733780  72.7681790  38.6853210  72.6415070
  72.4141310  39.8347980  73.5608710  57.7333950  40.1312420  79.6942830
  58.1006990  40.0439820  80.5738850  57.1644770  39.3678970  79.5949690
  72.5337810  38.5996800  82.7073300  72.3023900  38.3709550  81.8071250
  72.7942360  39.5196350  82.6618190  57.2849950  37.0421510  83.6001250
  56.3906000  37.0088270  83.9394960  57.8247500  37.2408300  84.3652500
  70.9725880  33.8253230  85.4853000  71.8496060  33.8336630  85.8687000
  70.9846720  33.0884070  84.8745350  55.9096100  36.9558780  71.0964820
  55.0060180  37.2188980  70.9216480  56.3936720  37.2269950  70.3164780
  72.4189150  37.6782770  76.3741020  72.9426630  37.1845420  75.7431190
  73.0048570  37.8133130  77.1188590  72.5978870  37.7622640  79.8960570
  71.6481580  37.7286180  80.0105560  72.7791880  38.6722750  79.6610340
  58.4523310  36.0124320  69.0059200  59.1615010  35.5907540  68.5206480
  57.7363250  36.0799550  68.3742550  58.0997470  32.0663650  68.0461850
  58.8225600  32.6072590  68.3643070  58.3721990  31.7927070  67.1703390
  71.9089120  36.9356120  72.3133430  72.4048240  36.7026990  73.0982310
  71.7105190  36.0967960  71.8971070  57.7889660  31.3169840  77.9484470
  58.4365850  30.7667220  77.5079630  58.2091500  31.5712990  78.7700280
  73.3376280  35.5717070  74.8471110  73.2275560  35.4173110  75.7853380
  74.0983870  35.0438010  74.6046520  71.6842000  31.5111200  81.3054110
  72.3214220  32.1245340  81.6713300  71.8316890  31.5471860  80.3603340
  74.2266550  33.4024990  68.0877250  75.1515860  33.2706170  67.8795540
  74.2042340  33.4817810  69.0413700  74.3005040  34.1735650  70.7133960
  73.5056540  34.1080770  71.2426870  74.5048320  35.1086290  70.7019310
  71.2423460  48.2127200  74.7072350  71.8382530  47.8911770  74.0306770
  71.5001610  47.7399020  75.4985620  57.5421660  31.4725510  80.6909790
  57.1936480  31.9289330  81.4567970  57.2109360  30.5782640  80.7732220
  59.1486030  44.6445110  84.8562980  59.1055660  44.2738020  85.7377440
  59.2797040  45.5822680  84.9964800  62.8492060  46.2004700  80.4572700
  62.6083420  46.4679260  79.5703220  63.7894700  46.3710430  80.5123560
  65.0546480  32.6637390  84.2129210  64.9935370  33.2559220  84.9624620
  65.9946860  32.5563350  84.0679470  67.6921040  32.3207450  83.8521500
  68.3061450  32.6386740  83.1902580  68.2370600  31.8356040  84.4717360
  74.1096220  48.2199080  81.2583340  73.6154500  48.6167950  80.5410470
  73.5009510  47.5948290  81.6520620  58.2142300  31.0001710  83.9660560
  58.7625290  30.8189760  83.2026670  58.2797610  30.2095820  84.5016870
  58.9874060  47.5907360  81.9760760  58.3934380  47.4592060  82.7150800
  58.9797900  46.7545500  81.5102860  68.4329080  30.8839590  80.1790790
  67.5588920  31.2174700  79.9763720  68.3239830  30.4112770  81.0042660
  69.3401060  33.0910460  81.5632510  69.0114420  32.2762220  81.1834240
  70.2883360  33.0480270  81.4398200  71.7935670  48.8622500  78.5370080
  71.3338640  49.6138310  78.1628100  71.1648130  48.1428970  78.4784880
  58.6186290  44.9565740  80.9268800  57.8920350  44.3371030  80.8594750
  58.6795440  45.3506350  80.0566880  62.2231390  47.1710740  77.7118210
  62.7396410  46.5598100  77.1866470  62.8728770  47.6739520  78.2029220
  64.9626890  48.0619230  78.5387190  65.2504700  47.8073530  77.6620200
  65.4750110  47.5096590  79.1292760  66.1803900  31.8009430  79.1183700
  65.3975690  32.2754930  79.3980460  65.8866830  30.8964260  79.0096880
  70.7324970  32.5032530  77.1632790  71.1733060  32.4477630  76.3154390
  70.4632560  33.4190540  77.2342970  72.5963540  32.1347770  75.1741610
  72.5351940  31.1908990  75.0272630  73.3755570  32.2427860  75.7195070
  56.9016290  48.2740130  74.1365560  56.7338330  47.6410810  74.8347450
  56.0350800  48.4799530  73.7859750  57.5244310  32.1056910  71.6397420
  58.2823670  32.2185790  71.0661450  57.0621480  32.9426110  71.5940850
  64.0658120  34.2196180  74.6299730  63.2532630  33.8453070  74.2895610
  64.5699760  33.4641260  74.9320920  68.5683100  30.8838630  75.8682800
  69.1712470  31.4558840  76.3431320  67.8276090  31.4478070  75.6456700
  71.7117700  31.2860190  71.1423080  71.9068330  32.1843640  71.4090510
  70.9247570  31.0547270  71.6356030  58.5078990  46.9673360  71.5815700
  57.9826610  47.3481390  70.8777660  58.4323570  47.5924130  72.3025410
  59.8969460  32.6320960  70.1799390  60.4262220  31.8450760  70.0507340
  60.5297780  33.3112150  70.4134920  62.0907300  32.3696100  73.2344780
  61.4610040  31.6683410  73.4014910  61.5512440  33.1300230  73.0177940
  65.0299250  48.9835330  85.9055390  65.9566560  48.7479600  85.9491350
  65.0149680  49.8107330  85.4241420  73.2644310  48.5260900  72.9029640
  73.4396500  47.8398640  72.2590560  72.5665880  49.0507950  72.5106310
  62.2162860  31.6480080  85.6697270  61.9347130  32.1513680  84.9058090
  62.5982560  30.8501830  85.3039400  61.1071960  48.9155740  70.4564950
  61.8390780  48.6315020  69.9088840  61.3665630  48.6769020  71.3464330
  60.2686750  45.0320470  70.4611280  59.6395630  45.5005570  71.0097110
  60.3834580  44.1869690  70.8957470  68.8178320  31.0633660  86.2477740
  68.7043770  31.3828270  87.1429260  69.6348060  31.4646170  85.9515020
  71.5976810  48.2105190  85.7296430  72.3902130  47.7154420  85.5222390
  71.8909960  48.8895330  86.3372040  67.7236470  39.0826130  56.6112480
  67.6430520  38.1680740  56.3404190  67.3100890  39.5793200  55.9052190
  65.8554510  40.8605150  58.4921750  65.0796610  40.3805590  58.7820320
  66.5067440  40.1810800  58.3177910  59.8720340  41.1724960  59.3697510
  59.0405220  40.9173670  59.7694020  60.4801320  41.2435730  60.1055430
  69.8761940  45.2665340  57.2720880  69.4143470  44.4952580  57.6008050
  70.6887490  45.2931410  57.7773330  59.8521600  45.2065050  59.5655530
  60.1549640  44.3162790  59.3865750  60.5965190  45.7635270  59.3377780
  58.2812290  36.1326850  53.1539900  57.3928990  36.4742820  53.0519780
  58.5653480  35.9327170  52.2620730  56.2445300  38.7332500  59.0379600
  56.8161410  37.9654700  59.0383240  56.2446840  39.0321260  58.1286210
  66.1025250  47.5523350  56.8924870  65.4836690  48.0080850  56.3219310
  66.9577030  47.7074810  56.4914570  65.2963500  43.5362340  58.4991910
  65.2271780  42.5952280  58.3381040  66.0583360  43.6263750  59.0714480
  57.4870170  34.1416860  60.8248530  57.3073010  33.2442610  61.1051290
  57.0850250  34.6888730  61.4995480  66.3268670  36.3432720  58.7260840
  66.7033490  35.4704600  58.6134510  66.2288180  36.6791420  57.8351280
  60.4573680  34.7158350  54.1878280  60.5640430  35.6162080  54.4947040
  59.5466040  34.6676320  53.8972930  70.1092790  33.8383160  55.6589180
  70.9302410  33.3479730  55.7014660  70.1426870  34.4280820  56.4121020
  58.1056840  36.6377360  59.4330870  58.7866950  36.9015730  60.0518270
  57.7904890  35.7978230  59.7668880  62.2981410  37.6844720  58.5203460
  62.8059630  38.1825690  59.1608480  62.8294650  36.9079920  58.3442820
  74.3992340  35.8549910  62.2232810  73.6944510  36.2431620  61.7047920
  74.6650260  36.5500200  62.8253740  60.5817510  32.3243280  62.7866880
  60.5835950  32.8415670  61.9812780  59.7521820  31.8473460  62.7636810
  66.9688600  42.4362590  54.2856780  66.3505870  42.9012040  53.7219500
  67.4811850  43.1290070  54.7026290  61.8320360  41.9638460  60.9640380
  61.4989740  42.5907380  61.6061450  62.0087040  42.4900340  60.1842050
  70.3454270  35.7783540  58.4316720  69.6409840  36.0668430  59.0119830
  70.7066430  36.5883650  58.0716280  60.2632840  34.0353240  60.7937330
  60.6049650  34.8795290  60.4991200  59.3248650  34.1836980  60.9102670
  61.0439460  43.9319260  62.7789560  61.6613460  44.6070340  62.4974010
  60.1832580  44.3407240  62.6877060  56.3371800  43.1219120  51.6596410
  55.9599780  43.6106220  50.9281310  56.5944870  43.7944400  52.2902940
  71.9617050  45.3958670  60.6944200  71.2780570  46.0657780  60.6860870
  72.5011340  45.5939320  59.9289060  73.4141190  35.2238330  58.8225930
  72.4666100  35.2577310  58.9541360  73.7391180  36.0377280  59.2075290
  63.9460730  31.5235510  57.1181920  64.2535710  30.9682400  56.4017420
  63.0161430  31.6579970  56.9354910  69.4975790  47.2402800  59.4089380
  69.5102950  46.8365090  58.5411640  68.9451010  48.0150090  59.3050810
  70.7921210  43.9619020  54.4979550  70.6817540  43.0193350  54.6228970
  70.7889460  44.3234660  55.3842310  68.8961230  42.1432640  60.7371990
  69.3130020  41.9292750  59.9025450  69.6201050  42.4005430  61.3080610
  66.3341490  39.5884340  53.8542040  65.4070770  39.5221720  54.0830510
  66.4866310  40.5264470  53.7397280  66.3210570  35.8601340  50.8509200
  65.3814240  36.0215300  50.9361660  66.6393830  36.5787020  50.3045190
  72.8423330  40.5419860  60.8288230  72.0141960  40.6112950  60.3538360
  73.4373810  41.1274170  60.3604060  70.3638780  41.1504640  54.3577290
  69.7451200  40.8124190  53.7103590  70.3463230  40.5064400  55.0656480
  69.8065340  37.3289180  61.7743100  69.3936520  38.1542890  62.0283090
  69.0741290  36.7434220  61.5819460  61.9398130  40.1149080  56.6361770
  61.5355130  39.4026330  56.1407670  62.0261250  39.7702320  57.5249810
  62.4079830  43.8016640  58.8000980  62.1108120  43.1962110  58.1208760
  63.3579650  43.8393950  58.6890340  60.6526750  36.8892290  60.4160810
  61.2041340  36.9987630  59.6414060  61.1670260  37.2629890  61.1316040
  70.4965440  47.3748510  62.4624080  70.0196000  48.1820700  62.2696690
  69.8127230  46.7226840  62.6150290  61.4998260  43.5398330  65.4508780
  60.6026790  43.7638300  65.6982180  61.5251130  43.6633270  64.5020180
  68.5403480  40.3891450  51.3650040  68.9796760  39.5513880  51.2187860
  69.2531900  41.0220850  51.4514180  60.3269480  40.4111650  64.0266150
  60.1877250  41.2834450  64.3953550  59.4450840  40.0684460  63.8814090
  66.6498860  45.3287520  55.3331280  67.0894770  46.0711850  54.9186670
  66.5885750  45.5714090  56.2570240  62.1249830  46.3533350  66.2351300
  62.0965260  46.7576300  65.3679730  61.9614800  45.4243710  66.0722900
  72.1220620  31.6434260  49.6791080  71.8093280  31.7361090  50.5790150
  72.8833090  32.2215290  49.6288510  58.6402760  39.0094060  54.1368420
  58.5200360  39.7356150  53.5249690  58.3303650  38.2396970  53.6596330
  74.0764650  47.1360450  67.5315470  74.5524370  47.6143340  68.2104550
  74.6971810  47.0677940  66.8060970  56.2788130  42.1809200  59.9437060
  56.3568550  42.3157970  58.9992780  56.8929810  41.4725090  60.1365180
  57.5235760  43.8809390  56.3543240  57.1163840  44.0223980  55.4996840
  58.4148770  43.5969550  56.1514450  73.4797900  44.3273300  64.6915480
  73.6060960  44.0885180  63.7732660  73.5219280  43.4957840  65.1637560
  67.3414640  48.0301300  63.2610290  67.8559310  47.9409310  64.0632720
  66.4983720  48.3761000  63.5538200  69.3169040  48.3156640  52.6894290
  69.1570180  48.0259580  53.5876120  69.1515750  47.5396770  52.1539520
  61.7957420  48.0955170  54.4665910  61.6199900  47.1790710  54.2533710
  60.9413160  48.4542460  54.7063710  69.0195170  45.8244200  51.2492290
  68.3260330  45.8221490  50.5894570  69.7618030  45.4003520  50.8186460
  68.5845100  47.4506910  55.3240780  69.0402050  46.6696290  55.6379400
  68.9237620  48.1613730  55.8681960  73.3321910  36.3805760  65.6565220
  72.7166180  36.8885430  65.1280680  73.0118330  35.4804090  65.5991160
  56.3347650  43.2223370  62.4831520  56.4978690  42.7528730  61.6650890
  56.8000100  42.7146930  63.1480360  61.1066420  32.3529130  57.5192090
  60.6634570  33.1338670  57.1876610  61.6651410  32.6759020  58.2263030
  65.3936230  35.2197650  63.1227410  64.9315600  35.4280670  63.9347350
  64.9914340  34.4057000  62.8198080  70.3940740  36.4406600  64.2524070
  69.5434330  36.1412350  64.5733140  70.2342530  36.6848610  63.3407890
  67.4890450  37.9408350  66.3522860  67.8143860  37.1072100  66.0125090
  68.2770780  38.4636870  66.5001190  64.2225240  31.9739830  52.3997920
  63.5979420  31.9699700  53.1251230  64.1355360  31.1070790  52.0033890
  63.1442320  32.8976460  59.3781690  63.4414650  33.8039290  59.2973710
  63.6927880  32.4095240  58.7641260  60.8980640  37.4762700  55.2473340
  60.6721560  37.2599870  56.1519960  60.1173170  37.9091160  54.9019310
  68.1278400  37.4826070  53.8463990  67.5287290  38.2061870  53.6627610
  68.6758010  37.4202850  53.0640440  63.3379850  38.3748280  65.9133610
  63.2423450  37.4343010  65.7634010  64.1811830  38.5963350  65.5181680
  66.7343270  36.1189610  55.8767270  67.1272840  36.4361810  55.0635960
  67.0960120  35.2401490  55.9911790  58.4690390  34.7861950  64.0667390
  58.0753780  35.6337160  64.2740170  57.7808790  34.1488320  64.2576030
  65.0435440  34.8696920  67.1364130  64.3533760  34.6769120  67.7710220
  65.7867740  35.1531560  67.6688430  55.7707440  32.7090410  58.0997470
  55.4820490  33.2793270  58.8122450  56.5153200  32.2294860  58.4628700
  55.9577670  36.6510530  49.3100190  55.8752340  37.5941290  49.4515180
  55.6060730  36.5085440  48.4312540  67.3198410  38.7095360  59.9718050
  66.5879530  39.2182170  60.3208150  66.9222750  37.8925340  59.6706830
  63.7575800  35.3849560  58.3770540  63.7611860  34.9439510  57.5275080
  64.6526920  35.7066890  58.4842360  59.6078180  35.2676050  57.3364750
  59.2678230  35.7451280  58.0931800  58.8455500  34.8141170  56.9765850
  63.8195950  36.3861640  51.3677300  63.9408770  36.3448120  52.3163120
  63.4344460  37.2485790  51.2124030  67.7824320  34.1629040  59.3840990
  67.7997060  34.6137690  60.2282840  67.5339900  33.2634680  59.5974430
  62.8317450  38.6962780  50.7660600  62.2634350  38.2481030  50.1396510
  63.5406450  39.0555560  50.2325750  71.2095070  31.5761220  65.2227370
  71.5340840  30.8450880  65.7485350  71.2451580  31.2574860  64.3208360
  57.9086630  42.5974800  64.6427330  57.5241420  41.9568470  65.2410290
  58.2198820  43.3010920  65.2122060  64.0583770  39.4451340  60.1235950
  64.4253900  38.9709910  60.8697290  63.8688830  40.3192910  60.4644290
  56.9224260  34.1895030  56.2529420  56.6371180  33.8250700  57.0908040
  56.8603120  33.4575490  55.6392560  61.8483140  38.4859980  62.4420160
  61.5440210  39.3651960  62.6670520  62.8029600  38.5459770  62.4777600
  60.3764930  42.6920970  53.0387010  59.6027190  42.1518590  52.8785730
  61.1059560  42.1727580  52.7004770  71.1352910  41.6886330  58.8313400
  71.8552030  42.1841620  58.4409510  70.9334730  41.0104220  58.1867270
  66.5962850  33.0824290  52.9742790  65.7827460  32.5837460  52.8988100
  66.4024800  33.9222540  52.5579140  66.5171710  41.7595390  64.7182400
  66.4509020  40.8391060  64.4639990  65.8876850  41.8570830  65.4327040
  69.3111240  37.4543940  51.2704950  70.1990860  37.7661170  51.0956290
  69.2816330  36.5816190  50.8785530  60.4202330  42.3601350  56.6765820
  60.9381000  41.5569610  56.6222710  59.9686350  42.2980490  57.5182650
  65.3071830  43.6267630  51.9493120  65.6487530  44.3709860  51.4536440
  64.4784540  43.9398750  52.3117950  57.9046870  39.3262720  63.5891520
  57.5461810  39.9916570  64.1764860  57.6101430  38.4946270  63.9604140
  61.1059990  39.7846960  66.4731070  60.8060130  39.9304140  65.5758890
  61.8771230  39.2252250  66.3804460  66.4488440  44.5815960  64.4686200
  66.4632980  43.6496920  64.2505110  65.7413540  44.6675720  65.1075970
  71.5825510  38.7655780  50.7384810  71.4989230  39.1970000  49.8881250
  72.3019700  39.2254130  51.1711630  72.6599650  41.2223300  63.8154780
  71.9347840  41.8152080  63.6184170  73.1875110  41.2146840  63.0168150
  72.6112760  45.6198040  53.4666940  71.9688920  44.9653660  53.7410660
  72.2243420  46.0253130  52.6907610  68.1899240  42.9483470  57.3138630
  68.5423060  42.3511600  56.6540000  67.3061570  42.6227700  57.4846880
  64.2762520  43.7081160  54.7209040  64.9633650  44.2550370  55.1016630
  63.4894940  44.2521890  54.7558650  56.4154920  39.3253980  50.2126120
  57.2849770  39.6078780  50.4962040  55.9245240  40.1389850  50.0974930
  63.5789730  40.7127190  54.3334400  64.0352510  41.5232440  54.5594590
  63.2277940  40.3950330  55.1652890  65.8822340  46.2233530  61.5626700
  66.5264560  46.4292910  62.2400120  66.2451780  45.4621930  61.1097550
  59.4801510  31.0564840  54.8056920  59.3516140  31.0482740  55.7541840
  58.6563530  31.3947930  54.4547930  67.1554420  44.2265880  60.2804150
  67.7976650  43.5259040  60.3936320  67.6803770  45.0064320  60.1001040
  71.0010140  44.5114500  50.0043290  70.7747720  43.7944940  50.5967930
  70.6106340  44.2626940  49.1665040  68.9292040  45.0260780  63.4840210
  69.2648280  45.6127470  64.1618130  68.0092380  44.8953490  63.7138000
  56.7826170  48.5381360  50.7787750  57.1423810  49.1370700  50.1245020
  56.6418510  49.0841250  51.5522780  56.4795440  32.8155960  64.2663620
  55.7653960  33.0152880  64.8716230  56.8990480  32.0395530  64.6378420
  70.5826390  42.4286440  51.6657450  70.2948090  42.8899130  52.4535330
  71.3778560  41.9684210  51.9341670  56.7668030  46.8036220  65.2530150
  56.8759150  45.8630960  65.1125540  56.1148590  47.0690970  64.6043880
  64.7580620  45.0752110  66.6528270  64.4377490  44.3561350  67.1973960
  64.0838980  45.7507180  66.7264330  62.7994790  45.9212560  51.5961420
  62.7904890  46.6542250  50.9805930  61.8793150  45.6744140  51.6888380
  58.4001430  41.1427450  52.3408180  57.7929380  41.8826350  52.3503480
  58.8750780  41.2326810  51.5146380  67.9734220  35.3078270  62.0165070
  68.3415040  34.4873480  62.3444640  67.1132420  35.3680160  62.4320720
  71.3396250  34.2635210  52.8252630  70.7109410  34.3680880  52.1110860
  70.8448170  34.4831990  53.6146510  65.7854390  45.9840800  50.2586610
  65.8866370  45.7804790  49.3288590  64.8856130  45.7299080  50.4634390
  63.3080280  36.5421160  54.2410510  62.5996430  37.0107500  54.6824120
  63.5924760  35.8843170  54.8755700  64.9336210  37.9617860  62.2403040
  65.4321460  38.4363680  62.9054890  65.0759160  37.0381380  62.4473070
  67.3395710  33.2671820  55.6806300  67.2163490  33.2857950  54.7315810
  68.2880270  33.3150760  55.8004700  64.4272500  48.5027120  54.9534280
  64.6814000  48.4648510  54.0313650  63.4784980  48.3760450  54.9462530
  61.5115300  34.8506240  51.6161220  62.3605830  35.2876390  51.5501410
  61.1446570  35.1626500  52.4433280  72.1403070  34.1785820  63.0831430
  71.6376670  34.9191220  63.4225240  72.9559730  34.5669820  62.7668220
  70.4325080  39.4219000  56.5292790  69.4915220  39.4369230  56.7040480
  70.7469150  38.6354960  56.9753090  60.4106720  41.1038600  50.0896750
  61.1769990  40.9919960  50.6522180  60.4881410  40.4076570  49.4373520
  59.1053480  38.5363670  50.7729640  59.1857070  37.5891180  50.8847040
  59.9973230  38.8670550  50.8790300  72.4350660  46.5927850  58.2047050
  72.5598080  47.4159020  58.6770860  73.3016220  46.3818580  57.8571200
  59.9068190  48.6859060  57.8764180  60.6430670  48.1374520  58.1472750
  60.2909110  49.5515070  57.7370170  56.7913670  44.7532630  53.7505690
  55.8653450  44.9953770  53.7411100  57.2570100  45.5806890  53.6290440
  58.9126470  47.8705130  67.0649760  59.7139200  48.1917180  67.4785160
  58.3978290  47.5100710  67.7869670  63.0170500  47.8589370  49.6989750
  63.8099110  48.1478200  49.2471540  62.4974850  47.4281540  49.0202230
  67.7491100  43.9785000  67.0125170  67.1429260  44.0016600  66.2720920
  67.4445210  43.2468040  67.5492420  69.1791470  47.7065290  65.6234580
  70.1313220  47.6223310  65.5734820  69.0319690  48.3707000  66.2968370
  72.0700670  47.0859500  51.1226490  71.7842180  46.6724640  50.3080670
  71.8720220  48.0147210  51.0027010  56.6324280  40.3578590  66.0085810
  57.1363300  39.7785870  66.5802040  55.8931700  40.6418820  66.5462180
  63.5347900  43.0792780  49.5632100  63.4298540  42.4645130  50.2893480
  63.3672120  42.5558670  48.7795110  63.6862220  41.7649580  65.5421330
  62.9207890  42.3334580  65.4576000  63.8678180  41.4725790  64.6489560
  66.7750630  42.1412810  50.1674090  66.2260730  42.5882110  50.8116830
  67.3969890  41.6362060  50.6911760  70.8285570  43.4954910  66.0996350
  71.5695040  43.8330670  65.5963810  70.0658250  43.6646970  65.5466120
  58.6647360  38.5008180  66.9035880  58.7052700  38.2022050  67.8121110
  59.5192860  38.9015790  66.7443400  62.4425750  41.1003730  52.0639390
  62.8642170  40.9343600  52.9070780  62.5676590  40.2903960  51.5694530
  60.6053170  37.0800280  64.8710370  60.0749630  36.5891230  64.2433710
  61.2741240  37.5084480  64.3368300  64.9553390  40.1241340  49.3116490
  65.4759050  39.4090360  48.9457640  65.6021790  40.7627210  49.6117000
  69.5031230  41.5469740  64.6351560  69.9172250  41.7014820  65.4841980
  68.5682230  41.6724960  64.7977340  69.9753400  38.8865900  66.6390710
  70.5574170  38.1318220  66.5511190  70.1515170  39.4173340  65.8622190
  61.0925470  34.0462650  64.9507660  60.9982340  33.4283400  64.2258530
  60.5122860  34.7728940  64.7237570  63.8586910  32.6035890  61.9835050
  63.4104210  32.6260150  61.1380600  63.2252110  32.2054910  62.5805350
  64.2646460  41.4990220  62.6047490  64.6834570  42.3422950  62.4323730
  63.3455090  41.6362260  62.3754270  66.6010360  39.2306400  63.9885330
  66.7206570  38.6347540  64.7280170  67.4604360  39.2676090  63.5686630
  68.9398260  39.7843590  62.5647840  68.4133480  40.3086210  61.9612980
  69.2829600  40.4170980  63.1957570  61.3384650  37.1736960  49.0097550
  61.1373710  36.3104320  49.3710890  61.1676700  37.0870320  48.0719150
  62.1153880  47.8043230  63.7205220  61.5774970  48.5289290  63.4013920
  62.3687840  47.3273570  62.9302560  63.3679130  35.7727750  65.2461150
  63.9578820  35.4643600  65.9338970  62.5499370  35.3007500  65.4021050
  68.1872560  35.3893560  65.4794170  67.4988080  34.7275100  65.4144160
  68.9078580  34.9431830  65.9242630  68.8172960  31.9845190  51.5384430
  69.0975250  31.1413090  51.8943850  68.0438690  32.2168300  52.0523180
  60.1367450  34.2737580  48.9975430  60.4393350  34.2805010  48.0894580
  60.8762040  33.9235440  49.4943090  64.9716090  49.0394440  63.9791870
  64.8974790  49.9429580  64.2864240  64.0694930  48.7206340  63.9513940
  63.3552380  33.2172200  49.9831630  63.0074380  32.5396190  49.4034080
  63.5565150  32.7561710  50.7975020  65.5201420  48.2052950  51.6018230
  66.4152210  48.5437920  51.6236990  65.5519050  47.4832360  50.9742510
  59.1597580  43.5780000  49.8305230  59.5972450  44.1209670  50.4862810
  59.6445310  42.7526950  49.8401570  56.3743380  46.3669030  57.2825490
  56.7046390  45.4990090  57.0504130  56.8034380  46.5727550  58.1130450
  60.9705300  44.6978040  54.9427460  60.6700840  44.5743010  55.8431370
  60.8642790  43.8386630  54.5343190  56.8633590  47.2339620  60.0207120
  56.4264580  47.4140420  60.8531270  57.4311270  47.9914240  59.8788840
  72.4995770  46.7356620  64.3084430  71.8997760  46.7949180  63.5648350
  72.6289670  45.7961600  64.4381280  73.7397220  44.4774440  49.6454140
  72.9090180  44.5451090  50.1161370  73.9169050  45.3678560  49.3421000
  73.1953680  41.2221920  52.1488340  73.9572590  41.7918570  52.2548030
  73.2108050  40.6549120  52.9196650  56.6958020  39.7459850  56.3796000
  56.0406860  39.4771490  55.7355700  57.5335970  39.6364330  55.9297980
  74.2013650  42.0772020  56.9930270  74.5722480  41.2939340  56.5866240
  74.8415580  42.7661120  56.8147570  71.1847410  43.4608600  62.4060590
  70.3707250  43.8905760  62.6686380  71.5921610  44.0727010  61.7929640
  73.2472850  41.5156290  49.3060860  73.5221690  42.4235170  49.1780080
  73.0583590  41.4518820  50.2422850  69.6448460  34.5401140  50.6014490
  70.0633340  34.3532120  49.7611150  69.3384520  33.6880190  50.9117420
  73.1438190  39.4525280  54.2990290  72.7681790  38.6853210  53.8671580
  72.4141310  39.8347980  54.7865220  57.7333950  40.1312420  60.9199340
  58.1006990  40.0439820  61.7995360  57.1644770  39.3678970  60.8206200
  72.5337810  38.5996800  63.9329810  72.3023900  38.3709550  63.0327760
  72.7942360  39.5196350  63.8874700  57.2849950  37.0421510  64.8257760
  56.3906000  37.0088270  65.1651470  57.8247500  37.2408300  65.5909010
  70.9725880  33.8253230  66.7109510  71.8496060  33.8336630  67.0943510
  70.9846720  33.0884070  66.1001860  55.9096100  36.9558780  52.3221330
  55.0060180  37.2188980  52.1472990  56.3936720  37.2269950  51.5421290
  72.4189150  37.6782770  57.5997530  72.9426630  37.1845420  56.9687700
  73.0048570  37.8133130  58.3445100  72.5978870  37.7622640  61.1217080
  71.6481580  37.7286180  61.2362070  72.7791880  38.6722750  60.8866850
  58.4523310  36.0124320  50.2315710  59.1615010  35.5907540  49.7462990
  57.7363250  36.0799550  49.5999060  58.0997470  32.0663650  49.2718360
  58.8225600  32.6072590  49.5899580  58.3721990  31.7927070  48.3959900
  71.9089120  36.9356120  53.5389940  72.4048240  36.7026990  54.3238820
  71.7105190  36.0967960  53.1227580  57.7889660  31.3169840  59.1740980
  58.4365850  30.7667220  58.7336140  58.2091500  31.5712990  59.9956790
  73.3376280  35.5717070  56.0727620  73.2275560  35.4173110  57.0109890
  74.0983870  35.0438010  55.8303030  71.6842000  31.5111200  62.5310620
  72.3214220  32.1245340  62.8969810  71.8316890  31.5471860  61.5859850
  74.2266550  33.4024990  49.3133760  75.1515860  33.2706170  49.1052050
  74.2042340  33.4817810  50.2670210  74.3005040  34.1735650  51.9390470
  73.5056540  34.1080770  52.4683380  74.5048320  35.1086290  51.9275820
  71.2423460  48.2127200  55.9328860  71.8382530  47.8911770  55.2563280
  71.5001610  47.7399020  56.7242130  57.5421660  31.4725510  61.9166300
  57.1936480  31.9289330  62.6824480  57.2109360  30.5782640  61.9988730
  59.1486030  44.6445110  66.0819490  59.1055660  44.2738020  66.9633950
  59.2797040  45.5822680  66.2221310  62.8492060  46.2004700  61.6829210
  62.6083420  46.4679260  60.7959730  63.7894700  46.3710430  61.7380070
  65.0546480  32.6637390  65.4385720  64.9935370  33.2559220  66.1881130
  65.9946860  32.5563350  65.2935980  67.6921040  32.3207450  65.0778010
  68.3061450  32.6386740  64.4159090  68.2370600  31.8356040  65.6973870
  74.1096220  48.2199080  62.4839850  73.6154500  48.6167950  61.7666980
  73.5009510  47.5948290  62.8777130  58.2142300  31.0001710  65.1917070
  58.7625290  30.8189760  64.4283180  58.2797610  30.2095820  65.7273380
  58.9874060  47.5907360  63.2017270  58.3934380  47.4592060  63.9407310
  58.9797900  46.7545500  62.7359370  68.4329080  30.8839590  61.4047300
  67.5588920  31.2174700  61.2020230  68.3239830  30.4112770  62.2299170
  69.3401060  33.0910460  62.7889020  69.0114420  32.2762220  62.4090750
  70.2883360  33.0480270  62.6654710  71.7935670  48.8622500  59.7626590
  71.3338640  49.6138310  59.3884610  71.1648130  48.1428970  59.7041390
  58.6186290  44.9565740  62.1525310  57.8920350  44.3371030  62.0851260
  58.6795440  45.3506350  61.2823390  62.2231390  47.1710740  58.9374720
  62.7396410  46.5598100  58.4122980  62.8728770  47.6739520  59.4285730
  64.9626890  48.0619230  59.7643700  65.2504700  47.8073530  58.8876710
  65.4750110  47.5096590  60.3549270  66.1803900  31.8009430  60.3440210
  65.3975690  32.2754930  60.6236970  65.8866830  30.8964260  60.2353390
  70.7324970  32.5032530  58.3889300  71.1733060  32.4477630  57.5410900
  70.4632560  33.4190540  58.4599480  72.5963540  32.1347770  56.3998120
  72.5351940  31.1908990  56.2529140  73.3755570  32.2427860  56.9451580
  56.9016290  48.2740130  55.3622070  56.7338330  47.6410810  56.0603960
  56.0350800  48.4799530  55.0116260  57.5244310  32.1056910  52.8653930
  58.2823670  32.2185790  52.2917960  57.0621480  32.9426110  52.8197360
  64.0658120  34.2196180  55.8556240  63.2532630  33.8453070  55.5152120
  64.5699760  33.4641260  56.1577430  68.5683100  30.8838630  57.0939310
  69.1712470  31.4558840  57.5687830  67.8276090  31.4478070  56.8713210
  71.7117700  31.2860190  52.3679590  71.9068330  32.1843640  52.6347020
  70.9247570  31.0547270  52.8612540  58.5078990  46.9673360  52.8072210
  57.9826610  47.3481390  52.1034170  58.4323570  47.5924130  53.5281920
  59.8969460  32.6320960  51.4055900  60.4262220  31.8450760  51.2763850
  60.5297780  33.3112150  51.6391430  62.0907300  32.3696100  54.4601290
  61.4610040  31.6683410  54.6271420  61.5512440  33.1300230  54.2434450
  65.0299250  48.9835330  67.1311900  65.9566560  48.7479600  67.1747860
  65.0149680  49.8107330  66.6497930  73.2644310  48.5260900  54.1286150
  73.4396500  47.8398640  53.4847070  72.5665880  49.0507950  53.7362820
  62.2162860  31.6480080  66.8953780  61.9347130  32.1513680  66.1314600
  62.5982560  30.8501830  66.5295910  61.1071960  48.9155740  51.6821460
  61.8390780  48.6315020  51.1345350  61.3665630  48.6769020  52.5720840
  60.2686750  45.0320470  51.6867790  59.6395630  45.5005570  52.2353620
  60.3834580  44.1869690  52.1213980  68.8178320  31.0633660  67.4734250
  68.7043770  31.3828270  68.3685770  69.6348060  31.4646170  67.1771530
  71.5976810  48.2105190  66.9552940  72.3902130  47.7154420  66.7478900
  71.8909960  48.8895330  67.5628550  67.7236470  39.0826130  37.8368990
  67.6430520  38.1680740  37.5660700  67.3100890  39.5793200  37.1308700
  65.8554510  40.8605150  39.7178260  65.0796610  40.3805590  40.0076830
  66.5067440  40.1810800  39.5434420  59.8720340  41.1724960  40.5954020
  59.0405220  40.9173670  40.9950530  60.4801320  41.2435730  41.3311940
  69.8761940  45.2665340  38.4977390  69.4143470  44.4952580  38.8264560
  70.6887490  45.2931410  39.0029840  59.8521600  45.2065050  40.7912040
  60.1549640  44.3162790  40.6122260  60.5965190  45.7635270  40.5634290
  58.2812290  36.1326850  34.3796410  57.3928990  36.4742820  34.2776290
  58.5653480  35.9327170  33.4877240  56.2445300  38.7332500  40.2636110
  56.8161410  37.9654700  40.2639750  56.2446840  39.0321260  39.3542720
  66.1025250  47.5523350  38.1181380  65.4836690  48.0080850  37.5475820
  66.9577030  47.7074810  37.7171080  65.2963500  43.5362340  39.7248420
  65.2271780  42.5952280  39.5637550  66.0583360  43.6263750  40.2970990
  57.4870170  34.1416860  42.0505040  57.3073010  33.2442610  42.3307800
  57.0850250  34.6888730  42.7251990  66.3268670  36.3432720  39.9517350
  66.7033490  35.4704600  39.8391020  66.2288180  36.6791420  39.0607790
  60.4573680  34.7158350  35.4134790  60.5640430  35.6162080  35.7203550
  59.5466040  34.6676320  35.1229440  70.1092790  33.8383160  36.8845690
  70.9302410  33.3479730  36.9271170  70.1426870  34.4280820  37.6377530
  58.1056840  36.6377360  40.6587380  58.7866950  36.9015730  41.2774780
  57.7904890  35.7978230  40.9925390  62.2981410  37.6844720  39.7459970
  62.8059630  38.1825690  40.3864990  62.8294650  36.9079920  39.5699330
  74.3992340  35.8549910  43.4489320  73.6944510  36.2431620  42.9304430
  74.6650260  36.5500200  44.0510250  60.5817510  32.3243280  44.0123390
  60.5835950  32.8415670  43.2069290  59.7521820  31.8473460  43.9893320
  66.9688600  42.4362590  35.5113290  66.3505870  42.9012040  34.9476010
  67.4811850  43.1290070  35.9282800  61.8320360  41.9638460  42.1896890
  61.4989740  42.5907380  42.8317960  62.0087040  42.4900340  41.4098560
  70.3454270  35.7783540  39.6573230  69.6409840  36.0668430  40.2376340
  70.7066430  36.5883650  39.2972790  60.2632840  34.0353240  42.0193840
  60.6049650  34.8795290  41.7247710  59.3248650  34.1836980  42.1359180
  61.0439460  43.9319260  44.0046070  61.6613460  44.6070340  43.7230520
  60.1832580  44.3407240  43.9133570  56.3371800  43.1219120  32.8852920
  55.9599780  43.6106220  32.1537820  56.5944870  43.7944400  33.5159450
  71.9617050  45.3958670  41.9200710  71.2780570  46.0657780  41.9117380
  72.5011340  45.5939320  41.1545570  73.4141190  35.2238330  40.0482440
  72.4666100  35.2577310  40.1797870  73.7391180  36.0377280  40.4331800
  63.9460730  31.5235510  38.3438430  64.2535710  30.9682400  37.6273930
  63.0161430  31.6579970  38.1611420  69.4975790  47.2402800  40.6345890
  69.5102950  46.8365090  39.7668150  68.9451010  48.0150090  40.5307320
  70.7921210  43.9619020  35.7236060  70.6817540  43.0193350  35.8485480
  70.7889460  44.3234660  36.6098820  68.8961230  42.1432640  41.9628500
  69.3130020  41.9292750  41.1281960  69.6201050  42.4005430  42.5337120
  66.3341490  39.5884340  35.0798550  65.4070770  39.5221720  35.3087020
  66.4866310  40.5264470  34.9653790  66.3210570  35.8601340  32.0765710
  65.3814240  36.0215300  32.1618170  66.6393830  36.5787020  31.5301700
  72.8423330  40.5419860  42.0544740  72.0141960  40.6112950  41.5794870
  73.4373810  41.1274170  41.5860570  70.3638780  41.1504640  35.5833800
  69.7451200  40.8124190  34.9360100  70.3463230  40.5064400  36.2912990
  69.8065340  37.3289180  42.9999610  69.3936520  38.1542890  43.2539600
  69.0741290  36.7434220  42.8075970  61.9398130  40.1149080  37.8618280
  61.5355130  39.4026330  37.3664180  62.0261250  39.7702320  38.7506320
  62.4079830  43.8016640  40.0257490  62.1108120  43.1962110  39.3465270
  63.3579650  43.8393950  39.9146850  60.6526750  36.8892290  41.6417320
  61.2041340  36.9987630  40.8670570  61.1670260  37.2629890  42.3572550
  70.4965440  47.3748510  43.6880590  70.0196000  48.1820700  43.4953200
  69.8127230  46.7226840  43.8406800  61.4998260  43.5398330  46.6765290
  60.6026790  43.7638300  46.9238690  61.5251130  43.6633270  45.7276690
  68.5403480  40.3891450  32.5906550  68.9796760  39.5513880  32.4444370
  69.2531900  41.0220850  32.6770690  60.3269480  40.4111650  45.2522660
  60.1877250  41.2834450  45.6210060  59.4450840  40.0684460  45.1070600
  66.6498860  45.3287520  36.5587790  67.0894770  46.0711850  36.1443180
  66.5885750  45.5714090  37.4826750  62.1249830  46.3533350  47.4607810
  62.0965260  46.7576300  46.5936240  61.9614800  45.4243710  47.2979410
  72.1220620  31.6434260  30.9047590  71.8093280  31.7361090  31.8046660
  72.8833090  32.2215290  30.8545020  58.6402760  39.0094060  35.3624930
  58.5200360  39.7356150  34.7506200  58.3303650  38.2396970  34.8852840
  74.0764650  47.1360450  48.7571980  74.5524370  47.6143340  49.4361060
  74.6971810  47.0677940  48.0317480  56.2788130  42.1809200  41.1693570
  56.3568550  42.3157970  40.2249290  56.8929810  41.4725090  41.3621690
  57.5235760  43.8809390  37.5799750  57.1163840  44.0223980  36.7253350
  58.4148770  43.5969550  37.3770960  73.4797900  44.3273300  45.9171990
  73.6060960  44.0885180  44.9989170  73.5219280  43.4957840  46.3894070
  67.3414640  48.0301300  44.4866800  67.8559310  47.9409310  45.2889230
  66.4983720  48.3761000  44.7794710  69.3169040  48.3156640  33.9150800
  69.1570180  48.0259580  34.8132630  69.1515750  47.5396770  33.3796030
  61.7957420  48.0955170  35.6922420  61.6199900  47.1790710  35.4790220
  60.9413160  48.4542460  35.9320220  69.0195170  45.8244200  32.4748800
  68.3260330  45.8221490  31.8151080  69.7618030  45.4003520  32.0442970
  68.5845100  47.4506910  36.5497290  69.0402050  46.6696290  36.8635910
  68.9237620  48.1613730  37.0938470  73.3321910  36.3805760  46.8821730
  72.7166180  36.8885430  46.3537190  73.0118330  35.4804090  46.8247670
  56.3347650  43.2223370  43.7088030  56.4978690  42.7528730  42.8907400
  56.8000100  42.7146930  44.3736870  61.1066420  32.3529130  38.7448600
  60.6634570  33.1338670  38.4133120  61.6651410  32.6759020  39.4519540
  65.3936230  35.2197650  44.3483920  64.9315600  35.4280670  45.1603860
  64.9914340  34.4057000  44.0454590  70.3940740  36.4406600  45.4780580
  69.5434330  36.1412350  45.7989650  70.2342530  36.6848610  44.5664400
  67.4890450  37.9408350  47.5779370  67.8143860  37.1072100  47.2381600
  68.2770780  38.4636870  47.7257700  64.2225240  31.9739830  33.6254430
  63.5979420  31.9699700  34.3507740  64.1355360  31.1070790  33.2290400
  63.1442320  32.8976460  40.6038200  63.4414650  33.8039290  40.5230220
  63.6927880  32.4095240  39.9897770  60.8980640  37.4762700  36.4729850
  60.6721560  37.2599870  37.3776470  60.1173170  37.9091160  36.1275820
  68.1278400  37.4826070  35.0720500  67.5287290  38.2061870  34.8884120
  68.6758010  37.4202850  34.2896950  63.3379850  38.3748280  47.1390120
  63.2423450  37.4343010  46.9890520  64.1811830  38.5963350  46.7438190
  66.7343270  36.1189610  37.1023780  67.1272840  36.4361810  36.2892470
  67.0960120  35.2401490  37.2168300  58.4690390  34.7861950  45.2923900
  58.0753780  35.6337160  45.4996680  57.7808790  34.1488320  45.4832540
  65.0435440  34.8696920  48.3620640  64.3533760  34.6769120  48.9966730
  65.7867740  35.1531560  48.8944940  55.7707440  32.7090410  39.3253980
  55.4820490  33.2793270  40.0378960  56.5153200  32.2294860  39.6885210
  55.9577670  36.6510530  30.5356700  55.8752340  37.5941290  30.6771690
  55.6060730  36.5085440  29.6569050  67.3198410  38.7095360  41.1974560
  66.5879530  39.2182170  41.5464660  66.9222750  37.8925340  40.8963340
  63.7575800  35.3849560  39.6027050  63.7611860  34.9439510  38.7531590
  64.6526920  35.7066890  39.7098870  59.6078180  35.2676050  38.5621260
  59.2678230  35.7451280  39.3188310  58.8455500  34.8141170  38.2022360
  63.8195950  36.3861640  32.5933810  63.9408770  36.3448120  33.5419630
  63.4344460  37.2485790  32.4380540  67.7824320  34.1629040  40.6097500
  67.7997060  34.6137690  41.4539350  67.5339900  33.2634680  40.8230940
  62.8317450  38.6962780  31.9917110  62.2634350  38.2481030  31.3653020
  63.5406450  39.0555560  31.4582260  71.2095070  31.5761220  46.4483880
  71.5340840  30.8450880  46.9741860  71.2451580  31.2574860  45.5464870
  57.9086630  42.5974800  45.8683840  57.5241420  41.9568470  46.4666800
  58.2198820  43.3010920  46.4378570  64.0583770  39.4451340  41.3492460
  64.4253900  38.9709910  42.0953800  63.8688830  40.3192910  41.6900800
  56.9224260  34.1895030  37.4785930  56.6371180  33.8250700  38.3164550
  56.8603120  33.4575490  36.8649070  61.8483140  38.4859980  43.6676670
  61.5440210  39.3651960  43.8927030  62.8029600  38.5459770  43.7034110
  60.3764930  42.6920970  34.2643520  59.6027190  42.1518590  34.1042240
  61.1059560  42.1727580  33.9261280  71.1352910  41.6886330  40.0569910
  71.8552030  42.1841620  39.6666020  70.9334730  41.0104220  39.4123780
  66.5962850  33.0824290  34.1999300  65.7827460  32.5837460  34.1244610
  66.4024800  33.9222540  33.7835650  66.5171710  41.7595390  45.9438910
  66.4509020  40.8391060  45.6896500  65.8876850  41.8570830  46.6583550
  69.3111240  37.4543940  32.4961460  70.1990860  37.7661170  32.3212800
  69.2816330  36.5816190  32.1042040  60.4202330  42.3601350  37.9022330
  60.9381000  41.5569610  37.8479220  59.9686350  42.2980490  38.7439160
  65.3071830  43.6267630  33.1749630  65.6487530  44.3709860  32.6792950
  64.4784540  43.9398750  33.5374460  57.9046870  39.3262720  44.8148030
  57.5461810  39.9916570  45.4021370  57.6101430  38.4946270  45.1860650
  61.1059990  39.7846960  47.6987580  60.8060130  39.9304140  46.8015400
  61.8771230  39.2252250  47.6060970  66.4488440  44.5815960  45.6942710
  66.4632980  43.6496920  45.4761620  65.7413540  44.6675720  46.3332480
  71.5825510  38.7655780  31.9641320  71.4989230  39.1970000  31.1137760
  72.3019700  39.2254130  32.3968140  72.6599650  41.2223300  45.0411290
  71.9347840  41.8152080  44.8440680  73.1875110  41.2146840  44.2424660
  72.6112760  45.6198040  34.6923450  71.9688920  44.9653660  34.9667170
  72.2243420  46.0253130  33.9164120  68.1899240  42.9483470  38.5395140
  68.5423060  42.3511600  37.8796510  67.3061570  42.6227700  38.7103390
  64.2762520  43.7081160  35.9465550  64.9633650  44.2550370  36.3273140
  63.4894940  44.2521890  35.9815160  56.4154920  39.3253980  31.4382630
  57.2849770  39.6078780  31.7218550  55.9245240  40.1389850  31.3231440
  63.5789730  40.7127190  35.5590910  64.0352510  41.5232440  35.7851100
  63.2277940  40.3950330  36.3909400  65.8822340  46.2233530  42.7883210
  66.5264560  46.4292910  43.4656630  66.2451780  45.4621930  42.3354060
  59.4801510  31.0564840  36.0313430  59.3516140  31.0482740  36.9798350
  58.6563530  31.3947930  35.6804440  67.1554420  44.2265880  41.5060660
  67.7976650  43.5259040  41.6192830  67.6803770  45.0064320  41.3257550
  71.0010140  44.5114500  31.2299800  70.7747720  43.7944940  31.8224440
  70.6106340  44.2626940  30.3921550  68.9292040  45.0260780  44.7096720
  69.2648280  45.6127470  45.3874640  68.0092380  44.8953490  44.9394510
  56.7826170  48.5381360  32.0044260  57.1423810  49.1370700  31.3501530
  56.6418510  49.0841250  32.7779290  56.4795440  32.8155960  45.4920130
  55.7653960  33.0152880  46.0972740  56.8990480  32.0395530  45.8634930
  70.5826390  42.4286440  32.8913960  70.2948090  42.8899130  33.6791840
  71.3778560  41.9684210  33.1598180  56.7668030  46.8036220  46.4786660
  56.8759150  45.8630960  46.3382050  56.1148590  47.0690970  45.8300390
  64.7580620  45.0752110  47.8784780  64.4377490  44.3561350  48.4230470
  64.0838980  45.7507180  47.9520840  62.7994790  45.9212560  32.8217930
  62.7904890  46.6542250  32.2062440  61.8793150  45.6744140  32.9144890
  58.4001430  41.1427450  33.5664690  57.7929380  41.8826350  33.5759990
  58.8750780  41.2326810  32.7402890  67.9734220  35.3078270  43.2421580
  68.3415040  34.4873480  43.5701150  67.1132420  35.3680160  43.6577230
  71.3396250  34.2635210  34.0509140  70.7109410  34.3680880  33.3367370
  70.8448170  34.4831990  34.8403020  65.7854390  45.9840800  31.4843120
  65.8866370  45.7804790  30.5545100  64.8856130  45.7299080  31.6890900
  63.3080280  36.5421160  35.4667020  62.5996430  37.0107500  35.9080630
  63.5924760  35.8843170  36.1012210  64.9336210  37.9617860  43.4659550
  65.4321460  38.4363680  44.1311400  65.0759160  37.0381380  43.6729580
  67.3395710  33.2671820  36.9062810  67.2163490  33.2857950  35.9572320
  68.2880270  33.3150760  37.0261210  64.4272500  48.5027120  36.1790790
  64.6814000  48.4648510  35.2570160  63.4784980  48.3760450  36.1719040
  61.5115300  34.8506240  32.8417730  62.3605830  35.2876390  32.7757920
  61.1446570  35.1626500  33.6689790  72.1403070  34.1785820  44.3087940
  71.6376670  34.9191220  44.6481750  72.9559730  34.5669820  43.9924730
  70.4325080  39.4219000  37.7549300  69.4915220  39.4369230  37.9296990
  70.7469150  38.6354960  38.2009600  60.4106720  41.1038600  31.3153260
  61.1769990  40.9919960  31.8778690  60.4881410  40.4076570  30.6630030
  59.1053480  38.5363670  31.9986150  59.1857070  37.5891180  32.1103550
  59.9973230  38.8670550  32.1046810  72.4350660  46.5927850  39.4303560
  72.5598080  47.4159020  39.9027370  73.3016220  46.3818580  39.0827710
  59.9068190  48.6859060  39.1020690  60.6430670  48.1374520  39.3729260
  60.2909110  49.5515070  38.9626680  56.7913670  44.7532630  34.9762200
  55.8653450  44.9953770  34.9667610  57.2570100  45.5806890  34.8546950
  58.9126470  47.8705130  48.2906270  59.7139200  48.1917180  48.7041670
  58.3978290  47.5100710  49.0126180  63.0170500  47.8589370  30.9246260
  63.8099110  48.1478200  30.4728050  62.4974850  47.4281540  30.2458740
  67.7491100  43.9785000  48.2381680  67.1429260  44.0016600  47.4977430
  67.4445210  43.2468040  48.7748930  69.1791470  47.7065290  46.8491090
  70.1313220  47.6223310  46.7991330  69.0319690  48.3707000  47.5224880
  72.0700670  47.0859500  32.3483000  71.7842180  46.6724640  31.5337180
  71.8720220  48.0147210  32.2283520  56.6324280  40.3578590  47.2342320
  57.1363300  39.7785870  47.8058550  55.8931700  40.6418820  47.7718690
  63.5347900  43.0792780  30.7888610  63.4298540  42.4645130  31.5149990
  63.3672120  42.5558670  30.0051620  63.6862220  41.7649580  46.7677840
  62.9207890  42.3334580  46.6832510  63.8678180  41.4725790  45.8746070
  66.7750630  42.1412810  31.3930600  66.2260730  42.5882110  32.0373340
  67.3969890  41.6362060  31.9168270  70.8285570  43.4954910  47.3252860
  71.5695040  43.8330670  46.8220320  70.0658250  43.6646970  46.7722630
  58.6647360  38.5008180  48.1292390  58.7052700  38.2022050  49.0377620
  59.5192860  38.9015790  47.9699910  62.4425750  41.1003730  33.2895900
  62.8642170  40.9343600  34.1327290  62.5676590  40.2903960  32.7951040
  60.6053170  37.0800280  46.0966880  60.0749630  36.5891230  45.4690220
  61.2741240  37.5084480  45.5624810  64.9553390  40.1241340  30.5373000
  65.4759050  39.4090360  30.1714150  65.6021790  40.7627210  30.8373510
  69.5031230  41.5469740  45.8608070  69.9172250  41.7014820  46.7098490
  68.5682230  41.6724960  46.0233850  69.9753400  38.8865900  47.8647220
  70.5574170  38.1318220  47.7767700  70.1515170  39.4173340  47.0878700
  61.0925470  34.0462650  46.1764170  60.9982340  33.4283400  45.4515040
  60.5122860  34.7728940  45.9494080  63.8586910  32.6035890  43.2091560
  63.4104210  32.6260150  42.3637110  63.2252110  32.2054910  43.8061860
  64.2646460  41.4990220  43.8304000  64.6834570  42.3422950  43.6580240
  63.3455090  41.6362260  43.6010780  66.6010360  39.2306400  45.2141840
  66.7206570  38.6347540  45.9536680  67.4604360  39.2676090  44.7943140
  68.9398260  39.7843590  43.7904350  68.4133480  40.3086210  43.1869490
  69.2829600  40.4170980  44.4214080  61.3384650  37.1736960  30.2354060
  61.1373710  36.3104320  30.5967400  61.1676700  37.0870320  29.2975660
  62.1153880  47.8043230  44.9461730  61.5774970  48.5289290  44.6270430
  62.3687840  47.3273570  44.1559070  63.3679130  35.7727750  46.4717660
  63.9578820  35.4643600  47.1595480  62.5499370  35.3007500  46.6277560
  68.1872560  35.3893560  46.7050680  67.4988080  34.7275100  46.6400670
  68.9078580  34.9431830  47.1499140  68.8172960  31.9845190  32.7640940
  69.0975250  31.1413090  33.1200360  68.0438690  32.2168300  33.2779690
  60.1367450  34.2737580  30.2231940  60.4393350  34.2805010  29.3151090
  60.8762040  33.9235440  30.7199600  64.9716090  49.0394440  45.2048380
  64.8974790  49.9429580  45.5120750  64.0694930  48.7206340  45.1770450
  63.3552380  33.2172200  31.2088140  63.0074380  32.5396190  30.6290590
  63.5565150  32.7561710  32.0231530  65.5201420  48.2052950  32.8274740
  66.4152210  48.5437920  32.8493500  65.5519050  47.4832360  32.1999020
  59.1597580  43.5780000  31.0561740  59.5972450  44.1209670  31.7119320
  59.6445310  42.7526950  31.0658080  56.3743380  46.3669030  38.5082000
  56.7046390  45.4990090  38.2760640  56.8034380  46.5727550  39.3386960
  60.9705300  44.6978040  36.1683970  60.6700840  44.5743010  37.0687880
  60.8642790  43.8386630  35.7599700  56.8633590  47.2339620  41.2463630
  56.4264580  47.4140420  42.0787780  57.4311270  47.9914240  41.1045350
  72.4995770  46.7356620  45.5340940  71.8997760  46.7949180  44.7904860
  72.6289670  45.7961600  45.6637790  73.7397220  44.4774440  30.8710650
  72.9090180  44.5451090  31.3417880  73.9169050  45.3678560  30.5677510
  73.1953680  41.2221920  33.3744850  73.9572590  41.7918570  33.4804540
  73.2108050  40.6549120  34.1453160  56.6958020  39.7459850  37.6052510
  56.0406860  39.4771490  36.9612210  57.5335970  39.6364330  37.1554490
  74.2013650  42.0772020  38.2186780  74.5722480  41.2939340  37.8122750
  74.8415580  42.7661120  38.0404080  71.1847410  43.4608600  43.6317100
  70.3707250  43.8905760  43.8942890  71.5921610  44.0727010  43.0186150
  73.2472850  41.5156290  30.5317370  73.5221690  42.4235170  30.4036590
  73.0583590  41.4518820  31.4679360  69.6448460  34.5401140  31.8271000
  70.0633340  34.3532120  30.9867660  69.3384520  33.6880190  32.1373930
  73.1438190  39.4525280  35.5246800  72.7681790  38.6853210  35.0928090
  72.4141310  39.8347980  36.0121730  57.7333950  40.1312420  42.1455850
  58.1006990  40.0439820  43.0251870  57.1644770  39.3678970  42.0462710
  72.5337810  38.5996800  45.1586320  72.3023900  38.3709550  44.2584270
  72.7942360  39.5196350  45.1131210  57.2849950  37.0421510  46.0514270
  56.3906000  37.0088270  46.3907980  57.8247500  37.2408300  46.8165520
  70.9725880  33.8253230  47.9366020  71.8496060  33.8336630  48.3200020
  70.9846720  33.0884070  47.3258370  55.9096100  36.9558780  33.5477840
  55.0060180  37.2188980  33.3729500  56.3936720  37.2269950  32.7677800
  72.4189150  37.6782770  38.8254040  72.9426630  37.1845420  38.1944210
  73.0048570  37.8133130  39.5701610  72.5978870  37.7622640  42.3473590
  71.6481580  37.7286180  42.4618580  72.7791880  38.6722750  42.1123360
  58.4523310  36.0124320  31.4572220  59.1615010  35.5907540  30.9719500
  57.7363250  36.0799550  30.8255570  58.0997470  32.0663650  30.4974870
  58.8225600  32.6072590  30.8156090  58.3721990  31.7927070  29.6216410
  71.9089120  36.9356120  34.7646450  72.4048240  36.7026990  35.5495330
  71.7105190  36.0967960  34.3484090  57.7889660  31.3169840  40.3997490
  58.4365850  30.7667220  39.9592650  58.2091500  31.5712990  41.2213300
  73.3376280  35.5717070  37.2984130  73.2275560  35.4173110  38.2366400
  74.0983870  35.0438010  37.0559540  71.6842000  31.5111200  43.7567130
  72.3214220  32.1245340  44.1226320  71.8316890  31.5471860  42.8116360
  74.2266550  33.4024990  30.5390270  75.1515860  33.2706170  30.3308560
  74.2042340  33.4817810  31.4926720  74.3005040  34.1735650  33.1646980
  73.5056540  34.1080770  33.6939890  74.5048320  35.1086290  33.1532330
  71.2423460  48.2127200  37.1585370  71.8382530  47.8911770  36.4819790
  71.5001610  47.7399020  37.9498640  57.5421660  31.4725510  43.1422810
  57.1936480  31.9289330  43.9080990  57.2109360  30.5782640  43.2245240
  59.1486030  44.6445110  47.3076000  59.1055660  44.2738020  48.1890460
  59.2797040  45.5822680  47.4477820  62.8492060  46.2004700  42.9085720
  62.6083420  46.4679260  42.0216240  63.7894700  46.3710430  42.9636580
  65.0546480  32.6637390  46.6642230  64.9935370  33.2559220  47.4137640
  65.9946860  32.5563350  46.5192490  67.6921040  32.3207450  46.3034520
  68.3061450  32.6386740  45.6415600  68.2370600  31.8356040  46.9230380
  74.1096220  48.2199080  43.7096360  73.6154500  48.6167950  42.9923490
  73.5009510  47.5948290  44.1033640  58.2142300  31.0001710  46.4173580
  58.7625290  30.8189760  45.6539690  58.2797610  30.2095820  46.9529890
  58.9874060  47.5907360  44.4273780  58.3934380  47.4592060  45.1663820
  58.9797900  46.7545500  43.9615880  68.4329080  30.8839590  42.6303810
  67.5588920  31.2174700  42.4276740  68.3239830  30.4112770  43.4555680
  69.3401060  33.0910460  44.0145530  69.0114420  32.2762220  43.6347260
  70.2883360  33.0480270  43.8911220  71.7935670  48.8622500  40.9883100
  71.3338640  49.6138310  40.6141120  71.1648130  48.1428970  40.9297900
  58.6186290  44.9565740  43.3781820  57.8920350  44.3371030  43.3107770
  58.6795440  45.3506350  42.5079900  62.2231390  47.1710740  40.1631230
  62.7396410  46.5598100  39.6379490  62.8728770  47.6739520  40.6542240
  64.9626890  48.0619230  40.9900210  65.2504700  47.8073530  40.1133220
  65.4750110  47.5096590  41.5805780  66.1803900  31.8009430  41.5696720
  65.3975690  32.2754930  41.8493480  65.8866830  30.8964260  41.4609900
  70.7324970  32.5032530  39.6145810  71.1733060  32.4477630  38.7667410
  70.4632560  33.4190540  39.6855990  72.5963540  32.1347770  37.6254630
  72.5351940  31.1908990  37.4785650  73.3755570  32.2427860  38.1708090
  56.9016290  48.2740130  36.5878580  56.7338330  47.6410810  37.2860470
  56.0350800  48.4799530  36.2372770  57.5244310  32.1056910  34.0910440
  58.2823670  32.2185790  33.5174470  57.0621480  32.9426110  34.0453870
  64.0658120  34.2196180  37.0812750  63.2532630  33.8453070  36.7408630
  64.5699760  33.4641260  37.3833940  68.5683100  30.8838630  38.3195820
  69.1712470  31.4558840  38.7944340  67.8276090  31.4478070  38.0969720
  71.7117700  31.2860190  33.5936100  71.9068330  32.1843640  33.8603530
  70.9247570  31.0547270  34.0869050  58.5078990  46.9673360  34.0328720
  57.9826610  47.3481390  33.3290680  58.4323570  47.5924130  34.7538430
  59.8969460  32.6320960  32.6312410  60.4262220  31.8450760  32.5020360
  60.5297780  33.3112150  32.8647940  62.0907300  32.3696100  35.6857800
  61.4610040  31.6683410  35.8527930  61.5512440  33.1300230  35.4690960
  65.0299250  48.9835330  48.3568410  65.9566560  48.7479600  48.4004370
  65.0149680  49.8107330  47.8754440  73.2644310  48.5260900  35.3542660
  73.4396500  47.8398640  34.7103580  72.5665880  49.0507950  34.9619330
  62.2162860  31.6480080  48.1210290  61.9347130  32.1513680  47.3571110
  62.5982560  30.8501830  47.7552420  61.1071960  48.9155740  32.9077970
  61.8390780  48.6315020  32.3601860  61.3665630  48.6769020  33.7977350
  60.2686750  45.0320470  32.9124300  59.6395630  45.5005570  33.4610130
  60.3834580  44.1869690  33.3470490  68.8178320  31.0633660  48.6990760
  68.7043770  31.3828270  49.5942280  69.6348060  31.4646170  48.4028040
  71.5976810  48.2105190  48.1809450  72.3902130  47.7154420  47.9735410
  71.8909960  48.8895330  48.7885060  67.7236470  39.0826130  19.0625500
  67.6430520  38.1680740  18.7917210  67.3100890  39.5793200  18.3565210
  65.8554510  40.8605150  20.9434770  65.0796610  40.3805590  21.2333340
  66.5067440  40.1810800  20.7690930  59.8720340  41.1724960  21.8210530
  59.0405220  40.9173670  22.2207040  60.4801320  41.2435730  22.5568450
  69.8761940  45.2665340  19.7233900  69.4143470  44.4952580  20.0521070
  70.6887490  45.2931410  20.2286350  59.8521600  45.2065050  22.0168550
  60.1549640  44.3162790  21.8378770  60.5965190  45.7635270  21.7890800
  58.2812290  36.1326850  15.6052920  57.3928990  36.4742820  15.5032800
  58.5653480  35.9327170  14.7133750  56.2445300  38.7332500  21.4892620
  56.8161410  37.9654700  21.4896260  56.2446840  39.0321260  20.5799230
  66.1025250  47.5523350  19.3437890  65.4836690  48.0080850  18.7732330
  66.9577030  47.7074810  18.9427590  65.2963500  43.5362340  20.9504930
  65.2271780  42.5952280  20.7894060  66.0583360  43.6263750  21.5227500
  57.4870170  34.1416860  23.2761550  57.3073010  33.2442610  23.5564310
  57.0850250  34.6888730  23.9508500  66.3268670  36.3432720  21.1773860
  66.7033490  35.4704600  21.0647530  66.2288180  36.6791420  20.2864300
  60.4573680  34.7158350  16.6391300  60.5640430  35.6162080  16.9460060
  59.5466040  34.6676320  16.3485950  70.1092790  33.8383160  18.1102200
  70.9302410  33.3479730  18.1527680  70.1426870  34.4280820  18.8634040
  58.1056840  36.6377360  21.8843890  58.7866950  36.9015730  22.5031290
  57.7904890  35.7978230  22.2181900  62.2981410  37.6844720  20.9716480
  62.8059630  38.1825690  21.6121500  62.8294650  36.9079920  20.7955840
  74.3992340  35.8549910  24.6745830  73.6944510  36.2431620  24.1560940
  74.6650260  36.5500200  25.2766760  60.5817510  32.3243280  25.2379900
  60.5835950  32.8415670  24.4325800  59.7521820  31.8473460  25.2149830
  66.9688600  42.4362590  16.7369800  66.3505870  42.9012040  16.1732520
  67.4811850  43.1290070  17.1539310  61.8320360  41.9638460  23.4153400
  61.4989740  42.5907380  24.0574470  62.0087040  42.4900340  22.6355070
  70.3454270  35.7783540  20.8829740  69.6409840  36.0668430  21.4632850
  70.7066430  36.5883650  20.5229300  60.2632840  34.0353240  23.2450350
  60.6049650  34.8795290  22.9504220  59.3248650  34.1836980  23.3615690
  61.0439460  43.9319260  25.2302580  61.6613460  44.6070340  24.9487030
  60.1832580  44.3407240  25.1390080  56.3371800  43.1219120  14.1109430
  55.9599780  43.6106220  13.3794330  56.5944870  43.7944400  14.7415960
  71.9617050  45.3958670  23.1457220  71.2780570  46.0657780  23.1373890
  72.5011340  45.5939320  22.3802080  73.4141190  35.2238330  21.2738950
  72.4666100  35.2577310  21.4054380  73.7391180  36.0377280  21.6588310
  63.9460730  31.5235510  19.5694940  64.2535710  30.9682400  18.8530440
  63.0161430  31.6579970  19.3867930  69.4975790  47.2402800  21.8602400
  69.5102950  46.8365090  20.9924660  68.9451010  48.0150090  21.7563830
  70.7921210  43.9619020  16.9492570  70.6817540  43.0193350  17.0741990
  70.7889460  44.3234660  17.8355330  68.8961230  42.1432640  23.1885010
  69.3130020  41.9292750  22.3538470  69.6201050  42.4005430  23.7593630
  66.3341490  39.5884340  16.3055060  65.4070770  39.5221720  16.5343530
  66.4866310  40.5264470  16.1910300  66.3210570  35.8601340  13.3022220
  65.3814240  36.0215300  13.3874680  66.6393830  36.5787020  12.7558210
  72.8423330  40.5419860  23.2801250  72.0141960  40.6112950  22.8051380
  73.4373810  41.1274170  22.8117080  70.3638780  41.1504640  16.8090310
  69.7451200  40.8124190  16.1616610  70.3463230  40.5064400  17.5169500
  69.8065340  37.3289180  24.2256120  69.3936520  38.1542890  24.4796110
  69.0741290  36.7434220  24.0332480  61.9398130  40.1149080  19.0874790
  61.5355130  39.4026330  18.5920690  62.0261250  39.7702320  19.9762830
  62.4079830  43.8016640  21.2514000  62.1108120  43.1962110  20.5721780
  63.3579650  43.8393950  21.1403360  60.6526750  36.8892290  22.8673830
  61.2041340  36.9987630  22.0927080  61.1670260  37.2629890  23.5829060
  70.4965440  47.3748510  24.9137100  70.0196000  48.1820700  24.7209710
  69.8127230  46.7226840  25.0663310  61.4998260  43.5398330  27.9021800
  60.6026790  43.7638300  28.1495200  61.5251130  43.6633270  26.9533200
  68.5403480  40.3891450  13.8163060  68.9796760  39.5513880  13.6700880
  69.2531900  41.0220850  13.9027200  60.3269480  40.4111650  26.4779170
  60.1877250  41.2834450  26.8466570  59.4450840  40.0684460  26.3327110
  66.6498860  45.3287520  17.7844300  67.0894770  46.0711850  17.3699690
  66.5885750  45.5714090  18.7083260  62.1249830  46.3533350  28.6864320
  62.0965260  46.7576300  27.8192750  61.9614800  45.4243710  28.5235920
  72.1220620  31.6434260  12.1304100  71.8093280  31.7361090  13.0303170
  72.8833090  32.2215290  12.0801530  58.6402760  39.0094060  16.5881440
  58.5200360  39.7356150  15.9762710  58.3303650  38.2396970  16.1109350
  74.0764650  47.1360450  29.9828490  74.5524370  47.6143340  30.6617570
  74.6971810  47.0677940  29.2573990  56.2788130  42.1809200  22.3950080
  56.3568550  42.3157970  21.4505800  56.8929810  41.4725090  22.5878200
  57.5235760  43.8809390  18.8056260  57.1163840  44.0223980  17.9509860
  58.4148770  43.5969550  18.6027470  73.4797900  44.3273300  27.1428500
  73.6060960  44.0885180  26.2245680  73.5219280  43.4957840  27.6150580
  67.3414640  48.0301300  25.7123310  67.8559310  47.9409310  26.5145740
  66.4983720  48.3761000  26.0051220  69.3169040  48.3156640  15.1407310
  69.1570180  48.0259580  16.0389140  69.1515750  47.5396770  14.6052540
  61.7957420  48.0955170  16.9178930  61.6199900  47.1790710  16.7046730
  60.9413160  48.4542460  17.1576730  69.0195170  45.8244200  13.7005310
  68.3260330  45.8221490  13.0407590  69.7618030  45.4003520  13.2699480
  68.5845100  47.4506910  17.7753800  69.0402050  46.6696290  18.0892420
  68.9237620  48.1613730  18.3194980  73.3321910  36.3805760  28.1078240
  72.7166180  36.8885430  27.5793700  73.0118330  35.4804090  28.0504180
  56.3347650  43.2223370  24.9344540  56.4978690  42.7528730  24.1163910
  56.8000100  42.7146930  25.5993380  61.1066420  32.3529130  19.9705110
  60.6634570  33.1338670  19.6389630  61.6651410  32.6759020  20.6776050
  65.3936230  35.2197650  25.5740430  64.9315600  35.4280670  26.3860370
  64.9914340  34.4057000  25.2711100  70.3940740  36.4406600  26.7037090
  69.5434330  36.1412350  27.0246160  70.2342530  36.6848610  25.7920910
  67.4890450  37.9408350  28.8035880  67.8143860  37.1072100  28.4638110
  68.2770780  38.4636870  28.9514210  64.2225240  31.9739830  14.8510940
  63.5979420  31.9699700  15.5764250  64.1355360  31.1070790  14.4546910
  63.1442320  32.8976460  21.8294710  63.4414650  33.8039290  21.7486730
  63.6927880  32.4095240  21.2154280  60.8980640  37.4762700  17.6986360
  60.6721560  37.2599870  18.6032980  60.1173170  37.9091160  17.3532330
  68.1278400  37.4826070  16.2977010  67.5287290  38.2061870  16.1140630
  68.6758010  37.4202850  15.5153460  63.3379850  38.3748280  28.3646630
  63.2423450  37.4343010  28.2147030  64.1811830  38.5963350  27.9694700
  66.7343270  36.1189610  18.3280290  67.1272840  36.4361810  17.5148980
  67.0960120  35.2401490  18.4424810  58.4690390  34.7861950  26.5180410
  58.0753780  35.6337160  26.7253190  57.7808790  34.1488320  26.7089050
  65.0435440  34.8696920  29.5877150  64.3533760  34.6769120  30.2223240
  65.7867740  35.1531560  30.1201450  55.7707440  32.7090410  20.5510490
  55.4820490  33.2793270  21.2635470  56.5153200  32.2294860  20.9141720
  55.9577670  36.6510530  11.7613210  55.8752340  37.5941290  11.9028200
  55.6060730  36.5085440  10.8825560  67.3198410  38.7095360  22.4231070
  66.5879530  39.2182170  22.7721170  66.9222750  37.8925340  22.1219850
  63.7575800  35.3849560  20.8283560  63.7611860  34.9439510  19.9788100
  64.6526920  35.7066890  20.9355380  59.6078180  35.2676050  19.7877770
  59.2678230  35.7451280  20.5444820  58.8455500  34.8141170  19.4278870
  63.8195950  36.3861640  13.8190320  63.9408770  36.3448120  14.7676140
  63.4344460  37.2485790  13.6637050  67.7824320  34.1629040  21.8354010
  67.7997060  34.6137690  22.6795860  67.5339900  33.2634680  22.0487450
  62.8317450  38.6962780  13.2173620  62.2634350  38.2481030  12.5909530
  63.5406450  39.0555560  12.6838770  71.2095070  31.5761220  27.6740390
  71.5340840  30.8450880  28.1998370  71.2451580  31.2574860  26.7721380
  57.9086630  42.5974800  27.0940350  57.5241420  41.9568470  27.6923310
  58.2198820  43.3010920  27.6635080  64.0583770  39.4451340  22.5748970
  64.4253900  38.9709910  23.3210310  63.8688830  40.3192910  22.9157310
  56.9224260  34.1895030  18.7042440  56.6371180  33.8250700  19.5421060
  56.8603120  33.4575490  18.0905580  61.8483140  38.4859980  24.8933180
  61.5440210  39.3651960  25.1183540  62.8029600  38.5459770  24.9290620
  60.3764930  42.6920970  15.4900030  59.6027190  42.1518590  15.3298750
  61.1059560  42.1727580  15.1517790  71.1352910  41.6886330  21.2826420
  71.8552030  42.1841620  20.8922530  70.9334730  41.0104220  20.6380290
  66.5962850  33.0824290  15.4255810  65.7827460  32.5837460  15.3501120
  66.4024800  33.9222540  15.0092160  66.5171710  41.7595390  27.1695420
  66.4509020  40.8391060  26.9153010  65.8876850  41.8570830  27.8840060
  69.3111240  37.4543940  13.7217970  70.1990860  37.7661170  13.5469310
  69.2816330  36.5816190  13.3298550  60.4202330  42.3601350  19.1278840
  60.9381000  41.5569610  19.0735730  59.9686350  42.2980490  19.9695670
  65.3071830  43.6267630  14.4006140  65.6487530  44.3709860  13.9049460
  64.4784540  43.9398750  14.7630970  57.9046870  39.3262720  26.0404540
  57.5461810  39.9916570  26.6277880  57.6101430  38.4946270  26.4117160
  61.1059990  39.7846960  28.9244090  60.8060130  39.9304140  28.0271910
  61.8771230  39.2252250  28.8317480  66.4488440  44.5815960  26.9199220
  66.4632980  43.6496920  26.7018130  65.7413540  44.6675720  27.5588990
  71.5825510  38.7655780  13.1897830  71.4989230  39.1970000  12.3394270
  72.3019700  39.2254130  13.6224650  72.6599650  41.2223300  26.2667800
  71.9347840  41.8152080  26.0697190  73.1875110  41.2146840  25.4681170
  72.6112760  45.6198040  15.9179960  71.9688920  44.9653660  16.1923680
  72.2243420  46.0253130  15.1420630  68.1899240  42.9483470  19.7651650
  68.5423060  42.3511600  19.1053020  67.3061570  42.6227700  19.9359900
  64.2762520  43.7081160  17.1722060  64.9633650  44.2550370  17.5529650
  63.4894940  44.2521890  17.2071670  56.4154920  39.3253980  12.6639140
  57.2849770  39.6078780  12.9475060  55.9245240  40.1389850  12.5487950
  63.5789730  40.7127190  16.7847420  64.0352510  41.5232440  17.0107610
  63.2277940  40.3950330  17.6165910  65.8822340  46.2233530  24.0139720
  66.5264560  46.4292910  24.6913140  66.2451780  45.4621930  23.5610570
  59.4801510  31.0564840  17.2569940  59.3516140  31.0482740  18.2054860
  58.6563530  31.3947930  16.9060950  67.1554420  44.2265880  22.7317170
  67.7976650  43.5259040  22.8449340  67.6803770  45.0064320  22.5514060
  71.0010140  44.5114500  12.4556310  70.7747720  43.7944940  13.0480950
  70.6106340  44.2626940  11.6178060  68.9292040  45.0260780  25.9353230
  69.2648280  45.6127470  26.6131150  68.0092380  44.8953490  26.1651020
  56.7826170  48.5381360  13.2300770  57.1423810  49.1370700  12.5758040
  56.6418510  49.0841250  14.0035800  56.4795440  32.8155960  26.7176640
  55.7653960  33.0152880  27.3229250  56.8990480  32.0395530  27.0891440
  70.5826390  42.4286440  14.1170470  70.2948090  42.8899130  14.9048350
  71.3778560  41.9684210  14.3854690  56.7668030  46.8036220  27.7043170
  56.8759150  45.8630960  27.5638560  56.1148590  47.0690970  27.0556900
  64.7580620  45.0752110  29.1041290  64.4377490  44.3561350  29.6486980
  64.0838980  45.7507180  29.1777350  62.7994790  45.9212560  14.0474440
  62.7904890  46.6542250  13.4318950  61.8793150  45.6744140  14.1401400
  58.4001430  41.1427450  14.7921200  57.7929380  41.8826350  14.8016500
  58.8750780  41.2326810  13.9659400  67.9734220  35.3078270  24.4678090
  68.3415040  34.4873480  24.7957660  67.1132420  35.3680160  24.8833740
  71.3396250  34.2635210  15.2765650  70.7109410  34.3680880  14.5623880
  70.8448170  34.4831990  16.0659530  65.7854390  45.9840800  12.7099630
  65.8866370  45.7804790  11.7801610  64.8856130  45.7299080  12.9147410
  63.3080280  36.5421160  16.6923530  62.5996430  37.0107500  17.1337140
  63.5924760  35.8843170  17.3268720  64.9336210  37.9617860  24.6916060
  65.4321460  38.4363680  25.3567910  65.0759160  37.0381380  24.8986090
  67.3395710  33.2671820  18.1319320  67.2163490  33.2857950  17.1828830
  68.2880270  33.3150760  18.2517720  64.4272500  48.5027120  17.4047300
  64.6814000  48.4648510  16.4826670  63.4784980  48.3760450  17.3975550
  61.5115300  34.8506240  14.0674240  62.3605830  35.2876390  14.0014430
  61.1446570  35.1626500  14.8946300  72.1403070  34.1785820  25.5344450
  71.6376670  34.9191220  25.8738260  72.9559730  34.5669820  25.2181240
  70.4325080  39.4219000  18.9805810  69.4915220  39.4369230  19.1553500
  70.7469150  38.6354960  19.4266110  60.4106720  41.1038600  12.5409770
  61.1769990  40.9919960  13.1035200  60.4881410  40.4076570  11.8886540
  59.1053480  38.5363670  13.2242660  59.1857070  37.5891180  13.3360060
  59.9973230  38.8670550  13.3303320  72.4350660  46.5927850  20.6560070
  72.5598080  47.4159020  21.1283880  73.3016220  46.3818580  20.3084220
  59.9068190  48.6859060  20.3277200  60.6430670  48.1374520  20.5985770
  60.2909110  49.5515070  20.1883190  56.7913670  44.7532630  16.2018710
  55.8653450  44.9953770  16.1924120  57.2570100  45.5806890  16.0803460
  58.9126470  47.8705130  29.5162780  59.7139200  48.1917180  29.9298180
  58.3978290  47.5100710  30.2382690  63.0170500  47.8589370  12.1502770
  63.8099110  48.1478200  11.6984560  62.4974850  47.4281540  11.4715250
  67.7491100  43.9785000  29.4638190  67.1429260  44.0016600  28.7233940
  67.4445210  43.2468040  30.0005440  69.1791470  47.7065290  28.0747600
  70.1313220  47.6223310  28.0247840  69.0319690  48.3707000  28.7481390
  72.0700670  47.0859500  13.5739510  71.7842180  46.6724640  12.7593690
  71.8720220  48.0147210  13.4540030  56.6324280  40.3578590  28.4598830
  57.1363300  39.7785870  29.0315060  55.8931700  40.6418820  28.9975200
  63.5347900  43.0792780  12.0145120  63.4298540  42.4645130  12.7406500
  63.3672120  42.5558670  11.2308130  63.6862220  41.7649580  27.9934350
  62.9207890  42.3334580  27.9089020  63.8678180  41.4725790  27.1002580
  66.7750630  42.1412810  12.6187110  66.2260730  42.5882110  13.2629850
  67.3969890  41.6362060  13.1424780  70.8285570  43.4954910  28.5509370
  71.5695040  43.8330670  28.0476830  70.0658250  43.6646970  27.9979140
  58.6647360  38.5008180  29.3548900  58.7052700  38.2022050  30.2634130
  59.5192860  38.9015790  29.1956420  62.4425750  41.1003730  14.5152410
  62.8642170  40.9343600  15.3583800  62.5676590  40.2903960  14.0207550
  60.6053170  37.0800280  27.3223390  60.0749630  36.5891230  26.6946730
  61.2741240  37.5084480  26.7881320  64.9553390  40.1241340  11.7629510
  65.4759050  39.4090360  11.3970660  65.6021790  40.7627210  12.0630020
  69.5031230  41.5469740  27.0864580  69.9172250  41.7014820  27.9355000
  68.5682230  41.6724960  27.2490360  69.9753400  38.8865900  29.0903730
  70.5574170  38.1318220  29.0024210  70.1515170  39.4173340  28.3135210
  61.0925470  34.0462650  27.4020680  60.9982340  33.4283400  26.6771550
  60.5122860  34.7728940  27.1750590  63.8586910  32.6035890  24.4348070
  63.4104210  32.6260150  23.5893620  63.2252110  32.2054910  25.0318370
  64.2646460  41.4990220  25.0560510  64.6834570  42.3422950  24.8836750
  63.3455090  41.6362260  24.8267290  66.6010360  39.2306400  26.4398350
  66.7206570  38.6347540  27.1793190  67.4604360  39.2676090  26.0199650
  68.9398260  39.7843590  25.0160860  68.4133480  40.3086210  24.4126000
  69.2829600  40.4170980  25.6470590  61.3384650  37.1736960  11.4610570
  61.1373710  36.3104320  11.8223910  61.1676700  37.0870320  10.5232170
  62.1153880  47.8043230  26.1718240  61.5774970  48.5289290  25.8526940
  62.3687840  47.3273570  25.3815580  63.3679130  35.7727750  27.6974170
  63.9578820  35.4643600  28.3851990  62.5499370  35.3007500  27.8534070
  68.1872560  35.3893560  27.9307190  67.4988080  34.7275100  27.8657180
  68.9078580  34.9431830  28.3755650  68.8172960  31.9845190  13.9897450
  69.0975250  31.1413090  14.3456870  68.0438690  32.2168300  14.5036200
  60.1367450  34.2737580  11.4488450  60.4393350  34.2805010  10.5407600
  60.8762040  33.9235440  11.9456110  64.9716090  49.0394440  26.4304890
  64.8974790  49.9429580  26.7377260  64.0694930  48.7206340  26.4026960
  63.3552380  33.2172200  12.4344650  63.0074380  32.5396190  11.8547100
  63.5565150  32.7561710  13.2488040  65.5201420  48.2052950  14.0531250
  66.4152210  48.5437920  14.0750010  65.5519050  47.4832360  13.4255530
  59.1597580  43.5780000  12.2818250  59.5972450  44.1209670  12.9375830
  59.6445310  42.7526950  12.2914590  56.3743380  46.3669030  19.7338510
  56.7046390  45.4990090  19.5017150  56.8034380  46.5727550  20.5643470
  60.9705300  44.6978040  17.3940480  60.6700840  44.5743010  18.2944390
  60.8642790  43.8386630  16.9856210  56.8633590  47.2339620  22.4720140
  56.4264580  47.4140420  23.3044290  57.4311270  47.9914240  22.3301860
  72.4995770  46.7356620  26.7597450  71.8997760  46.7949180  26.0161370
  72.6289670  45.7961600  26.8894300  73.7397220  44.4774440  12.0967160
  72.9090180  44.5451090  12.5674390  73.9169050  45.3678560  11.7934020
  73.1953680  41.2221920  14.6001360  73.9572590  41.7918570  14.7061050
  73.2108050  40.6549120  15.3709670  56.6958020  39.7459850  18.8309020
  56.0406860  39.4771490  18.1868720  57.5335970  39.6364330  18.3811000
  74.2013650  42.0772020  19.4443290  74.5722480  41.2939340  19.0379260
  74.8415580  42.7661120  19.2660590  71.1847410  43.4608600  24.8573610
  70.3707250  43.8905760  25.1199400  71.5921610  44.0727010  24.2442660
  73.2472850  41.5156290  11.7573880  73.5221690  42.4235170  11.6293100
  73.0583590  41.4518820  12.6935870  69.6448460  34.5401140  13.0527510
  70.0633340  34.3532120  12.2124170  69.3384520  33.6880190  13.3630440
  73.1438190  39.4525280  16.7503310  72.7681790  38.6853210  16.3184600
  72.4141310  39.8347980  17.2378240  57.7333950  40.1312420  23.3712360
  58.1006990  40.0439820  24.2508380  57.1644770  39.3678970  23.2719220
  72.5337810  38.5996800  26.3842830  72.3023900  38.3709550  25.4840780
  72.7942360  39.5196350  26.3387720  57.2849950  37.0421510  27.2770780
  56.3906000  37.0088270  27.6164490  57.8247500  37.2408300  28.0422030
  70.9725880  33.8253230  29.1622530  71.8496060  33.8336630  29.5456530
  70.9846720  33.0884070  28.5514880  55.9096100  36.9558780  14.7734350
  55.0060180  37.2188980  14.5986010  56.3936720  37.2269950  13.9934310
  72.4189150  37.6782770  20.0510550  72.9426630  37.1845420  19.4200720
  73.0048570  37.8133130  20.7958120  72.5978870  37.7622640  23.5730100
  71.6481580  37.7286180  23.6875090  72.7791880  38.6722750  23.3379870
  58.4523310  36.0124320  12.6828730  59.1615010  35.5907540  12.1976010
  57.7363250  36.0799550  12.0512080  58.0997470  32.0663650  11.7231380
  58.8225600  32.6072590  12.0412600  58.3721990  31.7927070  10.8472920
  71.9089120  36.9356120  15.9902960  72.4048240  36.7026990  16.7751840
  71.7105190  36.0967960  15.5740600  57.7889660  31.3169840  21.6254000
  58.4365850  30.7667220  21.1849160  58.2091500  31.5712990  22.4469810
  73.3376280  35.5717070  18.5240640  73.2275560  35.4173110  19.4622910
  74.0983870  35.0438010  18.2816050  71.6842000  31.5111200  24.9823640
  72.3214220  32.1245340  25.3482830  71.8316890  31.5471860  24.0372870
  74.2266550  33.4024990  11.7646780  75.1515860  33.2706170  11.5565070
  74.2042340  33.4817810  12.7183230  74.3005040  34.1735650  14.3903490
  73.5056540  34.1080770  14.9196400  74.5048320  35.1086290  14.3788840
  71.2423460  48.2127200  18.3841880  71.8382530  47.8911770  17.7076300
  71.5001610  47.7399020  19.1755150  57.5421660  31.4725510  24.3679320
  57.1936480  31.9289330  25.1337500  57.2109360  30.5782640  24.4501750
  59.1486030  44.6445110  28.5332510  59.1055660  44.2738020  29.4146970
  59.2797040  45.5822680  28.6734330  62.8492060  46.2004700  24.1342230
  62.6083420  46.4679260  23.2472750  63.7894700  46.3710430  24.1893090
  65.0546480  32.6637390  27.8898740  64.9935370  33.2559220  28.6394150
  65.9946860  32.5563350  27.7449000  67.6921040  32.3207450  27.5291030
  68.3061450  32.6386740  26.8672110  68.2370600  31.8356040  28.1486890
  74.1096220  48.2199080  24.9352870  73.6154500  48.6167950  24.2180000
  73.5009510  47.5948290  25.3290150  58.2142300  31.0001710  27.6430090
  58.7625290  30.8189760  26.8796200  58.2797610  30.2095820  28.1786400
  58.9874060  47.5907360  25.6530290  58.3934380  47.4592060  26.3920330
  58.9797900  46.7545500  25.1872390  68.4329080  30.8839590  23.8560320
  67.5588920  31.2174700  23.6533250  68.3239830  30.4112770  24.6812190
  69.3401060  33.0910460  25.2402040  69.0114420  32.2762220  24.8603770
  70.2883360  33.0480270  25.1167730  71.7935670  48.8622500  22.2139610
  71.3338640  49.6138310  21.8397630  71.1648130  48.1428970  22.1554410
  58.6186290  44.9565740  24.6038330  57.8920350  44.3371030  24.5364280
  58.6795440  45.3506350  23.7336410  62.2231390  47.1710740  21.3887740
  62.7396410  46.5598100  20.8636000  62.8728770  47.6739520  21.8798750
  64.9626890  48.0619230  22.2156720  65.2504700  47.8073530  21.3389730
  65.4750110  47.5096590  22.8062290  66.1803900  31.8009430  22.7953230
  65.3975690  32.2754930  23.0749990  65.8866830  30.8964260  22.6866410
  70.7324970  32.5032530  20.8402320  71.1733060  32.4477630  19.9923920
  70.4632560  33.4190540  20.9112500  72.5963540  32.1347770  18.8511140
  72.5351940  31.1908990  18.7042160  73.3755570  32.2427860  19.3964600
  56.9016290  48.2740130  17.8135090  56.7338330  47.6410810  18.5116980
  56.0350800  48.4799530  17.4629280  57.5244310  32.1056910  15.3166950
  58.2823670  32.2185790  14.7430980  57.0621480  32.9426110  15.2710380
  64.0658120  34.2196180  18.3069260  63.2532630  33.8453070  17.9665140
  64.5699760  33.4641260  18.6090450  68.5683100  30.8838630  19.5452330
  69.1712470  31.4558840  20.0200850  67.8276090  31.4478070  19.3226230
  71.7117700  31.2860190  14.8192610  71.9068330  32.1843640  15.0860040
  70.9247570  31.0547270  15.3125560  58.5078990  46.9673360  15.2585230
  57.9826610  47.3481390  14.5547190  58.4323570  47.5924130  15.9794940
  59.8969460  32.6320960  13.8568920  60.4262220  31.8450760  13.7276870
  60.5297780  33.3112150  14.0904450  62.0907300  32.3696100  16.9114310
  61.4610040  31.6683410  17.0784440  61.5512440  33.1300230  16.6947470
  65.0299250  48.9835330  29.5824920  65.9566560  48.7479600  29.6260880
  65.0149680  49.8107330  29.1010950  73.2644310  48.5260900  16.5799170
  73.4396500  47.8398640  15.9360090  72.5665880  49.0507950  16.1875840
  62.2162860  31.6480080  29.3466800  61.9347130  32.1513680  28.5827620
  62.5982560  30.8501830  28.9808930  61.1071960  48.9155740  14.1334480
  61.8390780  48.6315020  13.5858370  61.3665630  48.6769020  15.0233860
  60.2686750  45.0320470  14.1380810  59.6395630  45.5005570  14.6866640
  60.3834580  44.1869690  14.5727000  68.8178320  31.0633660  29.9247270
  68.7043770  31.3828270  30.8198790  69.6348060  31.4646170  29.6284550
  71.5976810  48.2105190  29.4065960  72.3902130  47.7154420  29.1991920
  71.8909960  48.8895330  30.0141570  65.8554510  40.8605150   2.1691280
  65.0796610  40.3805590   2.4589850  66.5067440  40.1810800   1.9947440
  59.8720340  41.1724960   3.0467040  59.0405220  40.9173670   3.4463550
  60.4801320  41.2435730   3.7824960  59.8521600  45.2065050   3.2425060
  60.1549640  44.3162790   3.0635280  60.5965190  45.7635270   3.0147310
  56.2445300  38.7332500   2.7149130  56.8161410  37.9654700   2.7152770
  56.2446840  39.0321260   1.8055740  65.2963500  43.5362340   2.1761440
  65.2271780  42.5952280   2.0150570  66.0583360  43.6263750   2.7484010
  57.4870170  34.1416860   4.5018060  57.3073010  33.2442610   4.7820820
  57.0850250  34.6888730   5.1765010  58.1056840  36.6377360   3.1100400
  58.7866950  36.9015730   3.7287800  57.7904890  35.7978230   3.4438410
  62.2981410  37.6844720   2.1972990  62.8059630  38.1825690   2.8378010
  62.8294650  36.9079920   2.0212350  74.3992340  35.8549910   5.9002340
  73.6944510  36.2431620   5.3817450  74.6650260  36.5500200   6.5023270
  60.5817510  32.3243280   6.4636410  60.5835950  32.8415670   5.6582310
  59.7521820  31.8473460   6.4406340  61.8320360  41.9638460   4.6409910
  61.4989740  42.5907380   5.2830980  62.0087040  42.4900340   3.8611580
  70.3454270  35.7783540   2.1086250  69.6409840  36.0668430   2.6889360
  70.7066430  36.5883650   1.7485810  60.2632840  34.0353240   4.4706860
  60.6049650  34.8795290   4.1760730  59.3248650  34.1836980   4.5872200
  61.0439460  43.9319260   6.4559090  61.6613460  44.6070340   6.1743540
  60.1832580  44.3407240   6.3646590  71.9617050  45.3958670   4.3713730
  71.2780570  46.0657780   4.3630400  72.5011340  45.5939320   3.6058590
  73.4141190  35.2238330   2.4995460  72.4666100  35.2577310   2.6310890
  73.7391180  36.0377280   2.8844820  69.4975790  47.2402800   3.0858910
  69.5102950  46.8365090   2.2181170  68.9451010  48.0150090   2.9820340
  68.8961230  42.1432640   4.4141520  69.3130020  41.9292750   3.5794980
  69.6201050  42.4005430   4.9850140  72.8423330  40.5419860   4.5057760
  72.0141960  40.6112950   4.0307890  73.4373810  41.1274170   4.0373590
  69.8065340  37.3289180   5.4512630  69.3936520  38.1542890   5.7052620
  69.0741290  36.7434220   5.2588990  62.4079830  43.8016640   2.4770510
  62.1108120  43.1962110   1.7978290  63.3579650  43.8393950   2.3659870
  60.6526750  36.8892290   4.0930340  61.2041340  36.9987630   3.3183590
  61.1670260  37.2629890   4.8085570  70.4965440  47.3748510   6.1393610
  70.0196000  48.1820700   5.9466220  69.8127230  46.7226840   6.2919820
  61.4998260  43.5398330   9.1278310  60.6026790  43.7638300   9.3751710
  61.5251130  43.6633270   8.1789710  60.3269480  40.4111650   7.7035680
  60.1877250  41.2834450   8.0723080  59.4450840  40.0684460   7.5583620
  62.1249830  46.3533350   9.9120830  62.0965260  46.7576300   9.0449260
  61.9614800  45.4243710   9.7492430  74.0764650  47.1360450  11.2085000
  74.5524370  47.6143340  11.8874080  74.6971810  47.0677940  10.4830500
  56.2788130  42.1809200   3.6206590  56.3568550  42.3157970   2.6762310
  56.8929810  41.4725090   3.8134710  73.4797900  44.3273300   8.3685010
  73.6060960  44.0885180   7.4502190  73.5219280  43.4957840   8.8407090
  67.3414640  48.0301300   6.9379820  67.8559310  47.9409310   7.7402250
  66.4983720  48.3761000   7.2307730  73.3321910  36.3805760   9.3334750
  72.7166180  36.8885430   8.8050210  73.0118330  35.4804090   9.2760690
  56.3347650  43.2223370   6.1601050  56.4978690  42.7528730   5.3420420
  56.8000100  42.7146930   6.8249890  65.3936230  35.2197650   6.7996940
  64.9315600  35.4280670   7.6116880  64.9914340  34.4057000   6.4967610
  70.3940740  36.4406600   7.9293600  69.5434330  36.1412350   8.2502670
  70.2342530  36.6848610   7.0177420  67.4890450  37.9408350  10.0292390
  67.8143860  37.1072100   9.6894620  68.2770780  38.4636870  10.1770720
  63.1442320  32.8976460   3.0551220  63.4414650  33.8039290   2.9743240
  63.6927880  32.4095240   2.4410790  63.3379850  38.3748280   9.5903140
  63.2423450  37.4343010   9.4403540  64.1811830  38.5963350   9.1951210
  58.4690390  34.7861950   7.7436920  58.0753780  35.6337160   7.9509700
  57.7808790  34.1488320   7.9345560  65.0435440  34.8696920  10.8133660
  64.3533760  34.6769120  11.4479750  65.7867740  35.1531560  11.3457960
  55.7707440  32.7090410   1.7767000  55.4820490  33.2793270   2.4891980
  56.5153200  32.2294860   2.1398230  67.3198410  38.7095360   3.6487580
  66.5879530  39.2182170   3.9977680  66.9222750  37.8925340   3.3476360
  67.7824320  34.1629040   3.0610520  67.7997060  34.6137690   3.9052370
  67.5339900  33.2634680   3.2743960  71.2095070  31.5761220   8.8996900
  71.5340840  30.8450880   9.4254880  71.2451580  31.2574860   7.9977890
  57.9086630  42.5974800   8.3196860  57.5241420  41.9568470   8.9179820
  58.2198820  43.3010920   8.8891590  64.0583770  39.4451340   3.8005480
  64.4253900  38.9709910   4.5466820  63.8688830  40.3192910   4.1413820
  61.8483140  38.4859980   6.1189690  61.5440210  39.3651960   6.3440050
  62.8029600  38.5459770   6.1547130  71.1352910  41.6886330   2.5082930
  71.8552030  42.1841620   2.1179040  70.9334730  41.0104220   1.8636800
  66.5171710  41.7595390   8.3951930  66.4509020  40.8391060   8.1409520
  65.8876850  41.8570830   9.1096570  57.9046870  39.3262720   7.2661050
  57.5461810  39.9916570   7.8534390  57.6101430  38.4946270   7.6373670
  61.1059990  39.7846960  10.1500600  60.8060130  39.9304140   9.2528420
  61.8771230  39.2252250  10.0573990  66.4488440  44.5815960   8.1455730
  66.4632980  43.6496920   7.9274640  65.7413540  44.6675720   8.7845500
  72.6599650  41.2223300   7.4924310  71.9347840  41.8152080   7.2953700
  73.1875110  41.2146840   6.6937680  65.8822340  46.2233530   5.2396230
  66.5264560  46.4292910   5.9169650  66.2451780  45.4621930   4.7867080
  67.1554420  44.2265880   3.9573680  67.7976650  43.5259040   4.0705850
  67.6803770  45.0064320   3.7770570  68.9292040  45.0260780   7.1609740
  69.2648280  45.6127470   7.8387660  68.0092380  44.8953490   7.3907530
  56.4795440  32.8155960   7.9433150  55.7653960  33.0152880   8.5485760
  56.8990480  32.0395530   8.3147950  56.7668030  46.8036220   8.9299680
  56.8759150  45.8630960   8.7895070  56.1148590  47.0690970   8.2813410
  64.7580620  45.0752110  10.3297800  64.4377490  44.3561350  10.8743490
  64.0838980  45.7507180  10.4033860  67.9734220  35.3078270   5.6934600
  68.3415040  34.4873480   6.0214170  67.1132420  35.3680160   6.1090250
  64.9336210  37.9617860   5.9172570  65.4321460  38.4363680   6.5824420
  65.0759160  37.0381380   6.1242600  72.1403070  34.1785820   6.7600960
  71.6376670  34.9191220   7.0994770  72.9559730  34.5669820   6.4437750
  58.9126470  47.8705130  10.7419290  59.7139200  48.1917180  11.1554690
  58.3978290  47.5100710  11.4639200  67.7491100  43.9785000  10.6894700
  67.1429260  44.0016600   9.9490450  67.4445210  43.2468040  11.2261950
  69.1791470  47.7065290   9.3004110  70.1313220  47.6223310   9.2504350
  69.0319690  48.3707000   9.9737900  56.6324280  40.3578590   9.6855340
  57.1363300  39.7785870  10.2571570  55.8931700  40.6418820  10.2231710
  63.6862220  41.7649580   9.2190860  62.9207890  42.3334580   9.1345530
  63.8678180  41.4725790   8.3259090  70.8285570  43.4954910   9.7765880
  71.5695040  43.8330670   9.2733340  70.0658250  43.6646970   9.2235650
  58.6647360  38.5008180  10.5805410  58.7052700  38.2022050  11.4890640
  59.5192860  38.9015790  10.4212930  60.6053170  37.0800280   8.5479900
  60.0749630  36.5891230   7.9203240  61.2741240  37.5084480   8.0137830
  69.5031230  41.5469740   8.3121090  69.9172250  41.7014820   9.1611510
  68.5682230  41.6724960   8.4746870  69.9753400  38.8865900  10.3160240
  70.5574170  38.1318220  10.2280720  70.1515170  39.4173340   9.5391720
  61.0925470  34.0462650   8.6277190  60.9982340  33.4283400   7.9028060
  60.5122860  34.7728940   8.4007100  63.8586910  32.6035890   5.6604580
  63.4104210  32.6260150   4.8150130  63.2252110  32.2054910   6.2574880
  64.2646460  41.4990220   6.2817020  64.6834570  42.3422950   6.1093260
  63.3455090  41.6362260   6.0523800  66.6010360  39.2306400   7.6654860
  66.7206570  38.6347540   8.4049700  67.4604360  39.2676090   7.2456160
  68.9398260  39.7843590   6.2417370  68.4133480  40.3086210   5.6382510
  69.2829600  40.4170980   6.8727100  62.1153880  47.8043230   7.3974750
  61.5774970  48.5289290   7.0783450  62.3687840  47.3273570   6.6072090
  63.3679130  35.7727750   8.9230680  63.9578820  35.4643600   9.6108500
  62.5499370  35.3007500   9.0790580  68.1872560  35.3893560   9.1563700
  67.4988080  34.7275100   9.0913690  68.9078580  34.9431830   9.6012160
  64.9716090  49.0394440   7.6561400  64.8974790  49.9429580   7.9633770
  64.0694930  48.7206340   7.6283470  56.8633590  47.2339620   3.6976650
  56.4264580  47.4140420   4.5300800  57.4311270  47.9914240   3.5558370
  72.4995770  46.7356620   7.9853960  71.8997760  46.7949180   7.2417880
  72.6289670  45.7961600   8.1150810  71.1847410  43.4608600   6.0830120
  70.3707250  43.8905760   6.3455910  71.5921610  44.0727010   5.4699170
  57.7333950  40.1312420   4.5968870  58.1006990  40.0439820   5.4764890
  57.1644770  39.3678970   4.4975730  72.5337810  38.5996800   7.6099340
  72.3023900  38.3709550   6.7097290  72.7942360  39.5196350   7.5644230
  57.2849950  37.0421510   8.5027290  56.3906000  37.0088270   8.8421000
  57.8247500  37.2408300   9.2678540  70.9725880  33.8253230  10.3879040
  71.8496060  33.8336630  10.7713040  70.9846720  33.0884070   9.7771390
  72.5978870  37.7622640   4.7986610  71.6481580  37.7286180   4.9131600
  72.7791880  38.6722750   4.5636380  57.7889660  31.3169840   2.8510510
  58.4365850  30.7667220   2.4105670  58.2091500  31.5712990   3.6726320
  71.6842000  31.5111200   6.2080150  72.3214220  32.1245340   6.5739340
  71.8316890  31.5471860   5.2629380  57.5421660  31.4725510   5.5935830
  57.1936480  31.9289330   6.3594010  57.2109360  30.5782640   5.6758260
  59.1486030  44.6445110   9.7589020  59.1055660  44.2738020  10.6403480
  59.2797040  45.5822680   9.8990840  62.8492060  46.2004700   5.3598740
  62.6083420  46.4679260   4.4729260  63.7894700  46.3710430   5.4149600
  65.0546480  32.6637390   9.1155250  64.9935370  33.2559220   9.8650660
  65.9946860  32.5563350   8.9705510  67.6921040  32.3207450   8.7547540
  68.3061450  32.6386740   8.0928620  68.2370600  31.8356040   9.3743400
  74.1096220  48.2199080   6.1609380  73.6154500  48.6167950   5.4436510
  73.5009510  47.5948290   6.5546660  58.2142300  31.0001710   8.8686600
  58.7625290  30.8189760   8.1052710  58.2797610  30.2095820   9.4042910
  58.9874060  47.5907360   6.8786800  58.3934380  47.4592060   7.6176840
  58.9797900  46.7545500   6.4128900  68.4329080  30.8839590   5.0816830
  67.5588920  31.2174700   4.8789760  68.3239830  30.4112770   5.9068700
  69.3401060  33.0910460   6.4658550  69.0114420  32.2762220   6.0860280
  70.2883360  33.0480270   6.3424240  71.7935670  48.8622500   3.4396120
  71.3338640  49.6138310   3.0654140  71.1648130  48.1428970   3.3810920
  58.6186290  44.9565740   5.8294840  57.8920350  44.3371030   5.7620790
  58.6795440  45.3506350   4.9592920  62.2231390  47.1710740   2.6144250
  62.7396410  46.5598100   2.0892510  62.8728770  47.6739520   3.1055260
  64.9626890  48.0619230   3.4413230  65.2504700  47.8073530   2.5646240
  65.4750110  47.5096590   4.0318800  66.1803900  31.8009430   4.0209740
  65.3975690  32.2754930   4.3006500  65.8866830  30.8964260   3.9122920
  65.0299250  48.9835330  10.8081430  65.9566560  48.7479600  10.8517390
  65.0149680  49.8107330  10.3267460  62.2162860  31.6480080  10.5723310
  61.9347130  32.1513680   9.8084130  62.5982560  30.8501830  10.2065440
  68.8178320  31.0633660  11.1503780  68.7043770  31.3828270  12.0455300
  69.6348060  31.4646170  10.8541060  71.5976810  48.2105190  10.6322470
  72.3902130  47.7154420  10.4248430  71.8909960  48.8895330  11.2398080
  67.7236470  20.3082640  94.1599460  67.6430520  19.3937250  93.8891170
  67.3100890  20.8049710  93.4539170  69.8761940  26.4921850  94.8207860
  69.4143470  25.7209090  95.1495030  70.6887490  26.5187920  95.3260310
  58.2812290  17.3583360  90.7026880  57.3928990  17.6999330  90.6006760
  58.5653480  17.1583680  89.8107710  66.1025250  28.7779860  94.4411850
  65.4836690  29.2337360  93.8706290  66.9577030  28.9331320  94.0401550
  60.4573680  15.9414860  91.7365260  60.5640430  16.8418590  92.0434020
  59.5466040  15.8932830  91.4459910  70.1092790  15.0639670  93.2076160
  70.9302410  14.5736240  93.2501640  70.1426870  15.6537330  93.9608000
  66.9688600  23.6619100  91.8343760  66.3505870  24.1268550  91.2706480
  67.4811850  24.3546580  92.2513270  56.3371800  24.3475630  89.2083390
  55.9599780  24.8362730  88.4768290  56.5944870  25.0200910  89.8389920
  63.9460730  12.7492020  94.6668900  64.2535710  12.1938910  93.9504400
  63.0161430  12.8836480  94.4841890  70.7921210  25.1875530  92.0466530
  70.6817540  24.2449860  92.1715950  70.7889460  25.5491170  92.9329290
  66.3341490  20.8140850  91.4029020  65.4070770  20.7478230  91.6317490
  66.4866310  21.7520980  91.2884260  66.3210570  17.0857850  88.3996180
  65.3814240  17.2471810  88.4848640  66.6393830  17.8043530  87.8532170
  70.3638780  22.3761150  91.9064270  69.7451200  22.0380700  91.2590570
  70.3463230  21.7320910  92.6143460  61.9398130  21.3405590  94.1848750
  61.5355130  20.6282840  93.6894650  62.0261250  20.9958830  95.0736790
  68.5403480  21.6147960  88.9137020  68.9796760  20.7770390  88.7674840
  69.2531900  22.2477360  89.0001160  66.6498860  26.5544030  92.8818260
  67.0894770  27.2968360  92.4673650  66.5885750  26.7970600  93.8057220
  72.1220620  12.8690770  87.2278060  71.8093280  12.9617600  88.1277130
  72.8833090  13.4471800  87.1775490  58.6402760  20.2350570  91.6855400
  58.5200360  20.9612660  91.0736670  58.3303650  19.4653480  91.2083310
  57.5235760  25.1065900  93.9030220  57.1163840  25.2480490  93.0483820
  58.4148770  24.8226060  93.7001430  69.3169040  29.5413150  90.2381270
  69.1570180  29.2516090  91.1363100  69.1515750  28.7653280  89.7026500
  61.7957420  29.3211680  92.0152890  61.6199900  28.4047220  91.8020690
  60.9413160  29.6798970  92.2550690  69.0195170  27.0500710  88.7979270
  68.3260330  27.0478000  88.1381550  69.7618030  26.6260030  88.3673440
  68.5845100  28.6763420  92.8727760  69.0402050  27.8952800  93.1866380
  68.9237620  29.3870240  93.4168940  61.1066420  13.5785640  95.0679070
  60.6634570  14.3595180  94.7363590  61.6651410  13.9015530  95.7750010
  64.2225240  13.1996340  89.9484900  63.5979420  13.1956210  90.6738210
  64.1355360  12.3327300  89.5520870  60.8980640  18.7019210  92.7960320
  60.6721560  18.4856380  93.7006940  60.1173170  19.1347670  92.4506290
  68.1278400  18.7082580  91.3950970  67.5287290  19.4318380  91.2114590
  68.6758010  18.6459360  90.6127420  66.7343270  17.3446120  93.4254250
  67.1272840  17.6618320  92.6122940  67.0960120  16.4658000  93.5398770
  55.9577670  17.8767040  86.8587170  55.8752340  18.8197800  87.0002160
  55.6060730  17.7341950  85.9799520  63.7575800  16.6106070  95.9257520
  63.7611860  16.1696020  95.0762060  64.6526920  16.9323400  96.0329340
  59.6078180  16.4932560  94.8851730  59.2678230  16.9707790  95.6418780
  58.8455500  16.0397680  94.5252830  63.8195950  17.6118150  88.9164280
  63.9408770  17.5704630  89.8650100  63.4344460  18.4742300  88.7611010
  62.8317450  19.9219290  88.3147580  62.2634350  19.4737540  87.6883490
  63.5406450  20.2812070  87.7812730  56.9224260  15.4151540  93.8016400
  56.6371180  15.0507210  94.6395020  56.8603120  14.6832000  93.1879540
  60.3764930  23.9177480  90.5873990  59.6027190  23.3775100  90.4272710
  61.1059560  23.3984090  90.2491750  66.5962850  14.3080800  90.5229770
  65.7827460  13.8093970  90.4475080  66.4024800  15.1479050  90.1066120
  69.3111240  18.6800450  88.8191930  70.1990860  18.9917680  88.6443270
  69.2816330  17.8072700  88.4272510  60.4202330  23.5857860  94.2252800
  60.9381000  22.7826120  94.1709690  59.9686350  23.5237000  95.0669630
  65.3071830  24.8524140  89.4980100  65.6487530  25.5966370  89.0023420
  64.4784540  25.1655260  89.8604930  71.5825510  19.9912290  88.2871790
  71.4989230  20.4226510  87.4368230  72.3019700  20.4510640  88.7198610
  72.6112760  26.8454550  91.0153920  71.9688920  26.1910170  91.2897640
  72.2243420  27.2509640  90.2394590  68.1899240  24.1739980  94.8625610
  68.5423060  23.5768110  94.2026980  67.3061570  23.8484210  95.0333860
  64.2762520  24.9337670  92.2696020  64.9633650  25.4806880  92.6503610
  63.4894940  25.4778400  92.3045630  56.4154920  20.5510490  87.7613100
  57.2849770  20.8335290  88.0449020  55.9245240  21.3646360  87.6461910
  63.5789730  21.9383700  91.8821380  64.0352510  22.7488950  92.1081570
  63.2277940  21.6206840  92.7139870  59.4801510  12.2821350  92.3543900
  59.3516140  12.2739250  93.3028820  58.6563530  12.6204440  92.0034910
  71.0010140  25.7371010  87.5530270  70.7747720  25.0201450  88.1454910
  70.6106340  25.4883450  86.7152020  56.7826170  29.7637870  88.3274730
  57.1423810  30.3627210  87.6732000  56.6418510  30.3097760  89.1009760
  70.5826390  23.6542950  89.2144430  70.2948090  24.1155640  90.0022310
  71.3778560  23.1940720  89.4828650  62.7994790  27.1469070  89.1448400
  62.7904890  27.8798760  88.5292910  61.8793150  26.9000650  89.2375360
  58.4001430  22.3683960  89.8895160  57.7929380  23.1082860  89.8990460
  58.8750780  22.4583320  89.0633360  71.3396250  15.4891720  90.3739610
  70.7109410  15.5937390  89.6597840  70.8448170  15.7088500  91.1633490
  65.7854390  27.2097310  87.8073590  65.8866370  27.0061300  86.8775570
  64.8856130  26.9555590  88.0121370  63.3080280  17.7677670  91.7897490
  62.5996430  18.2364010  92.2311100  63.5924760  17.1099680  92.4242680
  67.3395710  14.4928330  93.2293280  67.2163490  14.5114460  92.2802790
  68.2880270  14.5407270  93.3491680  64.4272500  29.7283630  92.5021260
  64.6814000  29.6905020  91.5800630  63.4784980  29.6016960  92.4949510
  61.5115300  16.0762750  89.1648200  62.3605830  16.5132900  89.0988390
  61.1446570  16.3883010  89.9920260  70.4325080  20.6475510  94.0779770
  69.4915220  20.6625740  94.2527460  70.7469150  19.8611470  94.5240070
  60.4106720  22.3295110  87.6383730  61.1769990  22.2176470  88.2009160
  60.4881410  21.6333080  86.9860500  59.1053480  19.7620180  88.3216620
  59.1857070  18.8147690  88.4334020  59.9973230  20.0927060  88.4277280
  59.9068190  29.9115570  95.4251160  60.6430670  29.3631030  95.6959730
  60.2909110  30.7771580  95.2857150  56.7913670  25.9789140  91.2992670
  55.8653450  26.2210280  91.2898080  57.2570100  26.8063400  91.1777420
  63.0170500  29.0845880  87.2476730  63.8099110  29.3734710  86.7958520
  62.4974850  28.6538050  86.5689210  72.0700670  28.3116010  88.6713470
  71.7842180  27.8981150  87.8567650  71.8720220  29.2403720  88.5513990
  63.5347900  24.3049290  87.1119080  63.4298540  23.6901640  87.8380460
  63.3672120  23.7815180  86.3282090  66.7750630  23.3669320  87.7161070
  66.2260730  23.8138620  88.3603810  67.3969890  22.8618570  88.2398740
  62.4425750  22.3260240  89.6126370  62.8642170  22.1600110  90.4557760
  62.5676590  21.5160470  89.1181510  64.9553390  21.3497850  86.8603470
  65.4759050  20.6346870  86.4944620  65.6021790  21.9883720  87.1603980
  61.3384650  18.3993470  86.5584530  61.1373710  17.5360830  86.9197870
  61.1676700  18.3126830  85.6206130  68.8172960  13.2101700  89.0871410
  69.0975250  12.3669600  89.4430830  68.0438690  13.4424810  89.6010160
  60.1367450  15.4994090  86.5462410  60.4393350  15.5061520  85.6381560
  60.8762040  15.1491950  87.0430070  63.3552380  14.4428710  87.5318610
  63.0074380  13.7652700  86.9521060  63.5565150  13.9818220  88.3462000
  65.5201420  29.4309460  89.1505210  66.4152210  29.7694430  89.1723970
  65.5519050  28.7088870  88.5229490  59.1597580  24.8036510  87.3792210
  59.5972450  25.3466180  88.0349790  59.6445310  23.9783460  87.3888550
  56.3743380  27.5925540  94.8312470  56.7046390  26.7246600  94.5991110
  56.8034380  27.7984060  95.6617430  60.9705300  25.9234550  92.4914440
  60.6700840  25.7999520  93.3918350  60.8642790  25.0643140  92.0830170
  73.7397220  25.7030950  87.1941120  72.9090180  25.7707600  87.6648350
  73.9169050  26.5935070  86.8907980  73.1953680  22.4478430  89.6975320
  73.9572590  23.0175080  89.8035010  73.2108050  21.8805630  90.4683630
  56.6958020  20.9716360  93.9282980  56.0406860  20.7028000  93.2842680
  57.5335970  20.8620840  93.4784960  74.2013650  23.3028530  94.5417250
  74.5722480  22.5195850  94.1353220  74.8415580  23.9917630  94.3634550
  73.2472850  22.7412800  86.8547840  73.5221690  23.6491680  86.7267060
  73.0583590  22.6775330  87.7909830  69.6448460  15.7657650  88.1501470
  70.0633340  15.5788630  87.3098130  69.3384520  14.9136700  88.4604400
  73.1438190  20.6781790  91.8477270  72.7681790  19.9109720  91.4158560
  72.4141310  21.0604490  92.3352200  55.9096100  18.1815290  89.8708310
  55.0060180  18.4445490  89.6959970  56.3936720  18.4526460  89.0908270
  72.4189150  18.9039280  95.1484510  72.9426630  18.4101930  94.5174680
  73.0048570  19.0389640  95.8932080  58.4523310  17.2380830  87.7802690
  59.1615010  16.8164050  87.2949970  57.7363250  17.3056060  87.1486040
  58.0997470  13.2920160  86.8205340  58.8225600  13.8329100  87.1386560
  58.3721990  13.0183580  85.9446880  71.9089120  18.1612630  91.0876920
  72.4048240  17.9283500  91.8725800  71.7105190  17.3224470  90.6714560
  73.3376280  16.7973580  93.6214600  73.2275560  16.6429620  94.5596870
  74.0983870  16.2694520  93.3790010  74.2266550  14.6281500  86.8620740
  75.1515860  14.4962680  86.6539030  74.2042340  14.7074320  87.8157190
  74.3005040  15.3992160  89.4877450  73.5056540  15.3337280  90.0170360
  74.5048320  16.3342800  89.4762800  71.2423460  29.4383710  93.4815840
  71.8382530  29.1168280  92.8050260  71.5001610  28.9655530  94.2729110
  70.7324970  13.7289040  95.9376280  71.1733060  13.6734140  95.0897880
  70.4632560  14.6447050  96.0086460  72.5963540  13.3604280  93.9485100
  72.5351940  12.4165500  93.8016120  73.3755570  13.4684370  94.4938560
  56.9016290  29.4996640  92.9109050  56.7338330  28.8667320  93.6090940
  56.0350800  29.7056040  92.5603240  57.5244310  13.3313420  90.4140910
  58.2823670  13.4442300  89.8404940  57.0621480  14.1682620  90.3684340
  64.0658120  15.4452690  93.4043220  63.2532630  15.0709580  93.0639100
  64.5699760  14.6897770  93.7064410  68.5683100  12.1095140  94.6426290
  69.1712470  12.6815350  95.1174810  67.8276090  12.6734580  94.4200190
  71.7117700  12.5116700  89.9166570  71.9068330  13.4100150  90.1834000
  70.9247570  12.2803780  90.4099520  58.5078990  28.1929870  90.3559190
  57.9826610  28.5737900  89.6521150  58.4323570  28.8180640  91.0768900
  59.8969460  13.8577470  88.9542880  60.4262220  13.0707270  88.8250830
  60.5297780  14.5368660  89.1878410  62.0907300  13.5952610  92.0088270
  61.4610040  12.8939920  92.1758400  61.5512440  14.3556740  91.7921430
  73.2644310  29.7517410  91.6773130  73.4396500  29.0655150  91.0334050
  72.5665880  30.2764460  91.2849800  61.1071960  30.1412250  89.2308440
  61.8390780  29.8571530  88.6832330  61.3665630  29.9025530  90.1207820
  60.2686750  26.2576980  89.2354770  59.6395630  26.7262080  89.7840600
  60.3834580  25.4126200  89.6700960  67.7236470  20.3082640  75.3855970
  67.6430520  19.3937250  75.1147680  67.3100890  20.8049710  74.6795680
  65.8554510  22.0861660  77.2665240  65.0796610  21.6062100  77.5563810
  66.5067440  21.4067310  77.0921400  59.8720340  22.3981470  78.1441000
  59.0405220  22.1430180  78.5437510  60.4801320  22.4692240  78.8798920
  69.8761940  26.4921850  76.0464370  69.4143470  25.7209090  76.3751540
  70.6887490  26.5187920  76.5516820  59.8521600  26.4321560  78.3399020
  60.1549640  25.5419300  78.1609240  60.5965190  26.9891780  78.1121270
  58.2812290  17.3583360  71.9283390  57.3928990  17.6999330  71.8263270
  58.5653480  17.1583680  71.0364220  56.2445300  19.9589010  77.8123090
  56.8161410  19.1911210  77.8126730  56.2446840  20.2577770  76.9029700
  66.1025250  28.7779860  75.6668360  65.4836690  29.2337360  75.0962800
  66.9577030  28.9331320  75.2658060  65.2963500  24.7618850  77.2735400
  65.2271780  23.8208790  77.1124530  66.0583360  24.8520260  77.8457970
  57.4870170  15.3673370  79.5992020  57.3073010  14.4699120  79.8794780
  57.0850250  15.9145240  80.2738970  66.3268670  17.5689230  77.5004330
  66.7033490  16.6961110  77.3878000  66.2288180  17.9047930  76.6094770
  60.4573680  15.9414860  72.9621770  60.5640430  16.8418590  73.2690530
  59.5466040  15.8932830  72.6716420  70.1092790  15.0639670  74.4332670
  70.9302410  14.5736240  74.4758150  70.1426870  15.6537330  75.1864510
  58.1056840  17.8633870  78.2074360  58.7866950  18.1272240  78.8261760
  57.7904890  17.0234740  78.5412370  62.2981410  18.9101230  77.2946950
  62.8059630  19.4082200  77.9351970  62.8294650  18.1336430  77.1186310
  74.3992340  17.0806420  80.9976300  73.6944510  17.4688130  80.4791410
  74.6650260  17.7756710  81.5997230  60.5817510  13.5499790  81.5610370
  60.5835950  14.0672180  80.7556270  59.7521820  13.0729970  81.5380300
  66.9688600  23.6619100  73.0600270  66.3505870  24.1268550  72.4962990
  67.4811850  24.3546580  73.4769780  61.8320360  23.1894970  79.7383870
  61.4989740  23.8163890  80.3804940  62.0087040  23.7156850  78.9585540
  70.3454270  17.0040050  77.2060210  69.6409840  17.2924940  77.7863320
  70.7066430  17.8140160  76.8459770  60.2632840  15.2609750  79.5680820
  60.6049650  16.1051800  79.2734690  59.3248650  15.4093490  79.6846160
  61.0439460  25.1575770  81.5533050  61.6613460  25.8326850  81.2717500
  60.1832580  25.5663750  81.4620550  56.3371800  24.3475630  70.4339900
  55.9599780  24.8362730  69.7024800  56.5944870  25.0200910  71.0646430
  71.9617050  26.6215180  79.4687690  71.2780570  27.2914290  79.4604360
  72.5011340  26.8195830  78.7032550  73.4141190  16.4494840  77.5969420
  72.4666100  16.4833820  77.7284850  73.7391180  17.2633790  77.9818780
  63.9460730  12.7492020  75.8925410  64.2535710  12.1938910  75.1760910
  63.0161430  12.8836480  75.7098400  69.4975790  28.4659310  78.1832870
  69.5102950  28.0621600  77.3155130  68.9451010  29.2406600  78.0794300
  70.7921210  25.1875530  73.2723040  70.6817540  24.2449860  73.3972460
  70.7889460  25.5491170  74.1585800  68.8961230  23.3689150  79.5115480
  69.3130020  23.1549260  78.6768940  69.6201050  23.6261940  80.0824100
  66.3341490  20.8140850  72.6285530  65.4070770  20.7478230  72.8574000
  66.4866310  21.7520980  72.5140770  66.3210570  17.0857850  69.6252690
  65.3814240  17.2471810  69.7105150  66.6393830  17.8043530  69.0788680
  72.8423330  21.7676370  79.6031720  72.0141960  21.8369460  79.1281850
  73.4373810  22.3530680  79.1347550  70.3638780  22.3761150  73.1320780
  69.7451200  22.0380700  72.4847080  70.3463230  21.7320910  73.8399970
  69.8065340  18.5545690  80.5486590  69.3936520  19.3799400  80.8026580
  69.0741290  17.9690730  80.3562950  61.9398130  21.3405590  75.4105260
  61.5355130  20.6282840  74.9151160  62.0261250  20.9958830  76.2993300
  62.4079830  25.0273150  77.5744470  62.1108120  24.4218620  76.8952250
  63.3579650  25.0650460  77.4633830  60.6526750  18.1148800  79.1904300
  61.2041340  18.2244140  78.4157550  61.1670260  18.4886400  79.9059530
  70.4965440  28.6005020  81.2367570  70.0196000  29.4077210  81.0440180
  69.8127230  27.9483350  81.3893780  61.4998260  24.7654840  84.2252270
  60.6026790  24.9894810  84.4725670  61.5251130  24.8889780  83.2763670
  68.5403480  21.6147960  70.1393530  68.9796760  20.7770390  69.9931350
  69.2531900  22.2477360  70.2257670  60.3269480  21.6368160  82.8009640
  60.1877250  22.5090960  83.1697040  59.4450840  21.2940970  82.6557580
  66.6498860  26.5544030  74.1074770  67.0894770  27.2968360  73.6930160
  66.5885750  26.7970600  75.0313730  62.1249830  27.5789860  85.0094790
  62.0965260  27.9832810  84.1423220  61.9614800  26.6500220  84.8466390
  72.1220620  12.8690770  68.4534570  71.8093280  12.9617600  69.3533640
  72.8833090  13.4471800  68.4032000  58.6402760  20.2350570  72.9111910
  58.5200360  20.9612660  72.2993180  58.3303650  19.4653480  72.4339820
  74.0764650  28.3616960  86.3058960  74.5524370  28.8399850  86.9848040
  74.6971810  28.2934450  85.5804460  56.2788130  23.4065710  78.7180550
  56.3568550  23.5414480  77.7736270  56.8929810  22.6981600  78.9108670
  57.5235760  25.1065900  75.1286730  57.1163840  25.2480490  74.2740330
  58.4148770  24.8226060  74.9257940  73.4797900  25.5529810  83.4658970
  73.6060960  25.3141690  82.5476150  73.5219280  24.7214350  83.9381050
  67.3414640  29.2557810  82.0353780  67.8559310  29.1665820  82.8376210
  66.4983720  29.6017510  82.3281690  69.3169040  29.5413150  71.4637780
  69.1570180  29.2516090  72.3619610  69.1515750  28.7653280  70.9283010
  61.7957420  29.3211680  73.2409400  61.6199900  28.4047220  73.0277200
  60.9413160  29.6798970  73.4807200  69.0195170  27.0500710  70.0235780
  68.3260330  27.0478000  69.3638060  69.7618030  26.6260030  69.5929950
  68.5845100  28.6763420  74.0984270  69.0402050  27.8952800  74.4122890
  68.9237620  29.3870240  74.6425450  73.3321910  17.6062270  84.4308710
  72.7166180  18.1141940  83.9024170  73.0118330  16.7060600  84.3734650
  56.3347650  24.4479880  81.2575010  56.4978690  23.9785240  80.4394380
  56.8000100  23.9403440  81.9223850  61.1066420  13.5785640  76.2935580
  60.6634570  14.3595180  75.9620100  61.6651410  13.9015530  77.0006520
  65.3936230  16.4454160  81.8970900  64.9315600  16.6537180  82.7090840
  64.9914340  15.6313510  81.5941570  70.3940740  17.6663110  83.0267560
  69.5434330  17.3668860  83.3476630  70.2342530  17.9105120  82.1151380
  67.4890450  19.1664860  85.1266350  67.8143860  18.3328610  84.7868580
  68.2770780  19.6893380  85.2744680  64.2225240  13.1996340  71.1741410
  63.5979420  13.1956210  71.8994720  64.1355360  12.3327300  70.7777380
  63.1442320  14.1232970  78.1525180  63.4414650  15.0295800  78.0717200
  63.6927880  13.6351750  77.5384750  60.8980640  18.7019210  74.0216830
  60.6721560  18.4856380  74.9263450  60.1173170  19.1347670  73.6762800
  68.1278400  18.7082580  72.6207480  67.5287290  19.4318380  72.4371100
  68.6758010  18.6459360  71.8383930  63.3379850  19.6004790  84.6877100
  63.2423450  18.6599520  84.5377500  64.1811830  19.8219860  84.2925170
  66.7343270  17.3446120  74.6510760  67.1272840  17.6618320  73.8379450
  67.0960120  16.4658000  74.7655280  58.4690390  16.0118460  82.8410880
  58.0753780  16.8593670  83.0483660  57.7808790  15.3744830  83.0319520
  65.0435440  16.0953430  85.9107620  64.3533760  15.9025630  86.5453710
  65.7867740  16.3788070  86.4431920  55.7707440  13.9346920  76.8740960
  55.4820490  14.5049780  77.5865940  56.5153200  13.4551370  77.2372190
  55.9577670  17.8767040  68.0843680  55.8752340  18.8197800  68.2258670
  55.6060730  17.7341950  67.2056030  67.3198410  19.9351870  78.7461540
  66.5879530  20.4438680  79.0951640  66.9222750  19.1181850  78.4450320
  63.7575800  16.6106070  77.1514030  63.7611860  16.1696020  76.3018570
  64.6526920  16.9323400  77.2585850  59.6078180  16.4932560  76.1108240
  59.2678230  16.9707790  76.8675290  58.8455500  16.0397680  75.7509340
  63.8195950  17.6118150  70.1420790  63.9408770  17.5704630  71.0906610
  63.4344460  18.4742300  69.9867520  67.7824320  15.3885550  78.1584480
  67.7997060  15.8394200  79.0026330  67.5339900  14.4891190  78.3717920
  62.8317450  19.9219290  69.5404090  62.2634350  19.4737540  68.9140000
  63.5406450  20.2812070  69.0069240  71.2095070  12.8017730  83.9970860
  71.5340840  12.0707390  84.5228840  71.2451580  12.4831370  83.0951850
  57.9086630  23.8231310  83.4170820  57.5241420  23.1824980  84.0153780
  58.2198820  24.5267430  83.9865550  64.0583770  20.6707850  78.8979440
  64.4253900  20.1966420  79.6440780  63.8688830  21.5449420  79.2387780
  56.9224260  15.4151540  75.0272910  56.6371180  15.0507210  75.8651530
  56.8603120  14.6832000  74.4136050  61.8483140  19.7116490  81.2163650
  61.5440210  20.5908470  81.4414010  62.8029600  19.7716280  81.2521090
  60.3764930  23.9177480  71.8130500  59.6027190  23.3775100  71.6529220
  61.1059560  23.3984090  71.4748260  71.1352910  22.9142840  77.6056890
  71.8552030  23.4098130  77.2153000  70.9334730  22.2360730  76.9610760
  66.5962850  14.3080800  71.7486280  65.7827460  13.8093970  71.6731590
  66.4024800  15.1479050  71.3322630  66.5171710  22.9851900  83.4925890
  66.4509020  22.0647570  83.2383480  65.8876850  23.0827340  84.2070530
  69.3111240  18.6800450  70.0448440  70.1990860  18.9917680  69.8699780
  69.2816330  17.8072700  69.6529020  60.4202330  23.5857860  75.4509310
  60.9381000  22.7826120  75.3966200  59.9686350  23.5237000  76.2926140
  65.3071830  24.8524140  70.7236610  65.6487530  25.5966370  70.2279930
  64.4784540  25.1655260  71.0861440  57.9046870  20.5519230  82.3635010
  57.5461810  21.2173080  82.9508350  57.6101430  19.7202780  82.7347630
  61.1059990  21.0103470  85.2474560  60.8060130  21.1560650  84.3502380
  61.8771230  20.4508760  85.1547950  66.4488440  25.8072470  83.2429690
  66.4632980  24.8753430  83.0248600  65.7413540  25.8932230  83.8819460
  71.5825510  19.9912290  69.5128300  71.4989230  20.4226510  68.6624740
  72.3019700  20.4510640  69.9455120  72.6599650  22.4479810  82.5898270
  71.9347840  23.0408590  82.3927660  73.1875110  22.4403350  81.7911640
  72.6112760  26.8454550  72.2410430  71.9688920  26.1910170  72.5154150
  72.2243420  27.2509640  71.4651100  68.1899240  24.1739980  76.0882120
  68.5423060  23.5768110  75.4283490  67.3061570  23.8484210  76.2590370
  64.2762520  24.9337670  73.4952530  64.9633650  25.4806880  73.8760120
  63.4894940  25.4778400  73.5302140  56.4154920  20.5510490  68.9869610
  57.2849770  20.8335290  69.2705530  55.9245240  21.3646360  68.8718420
  63.5789730  21.9383700  73.1077890  64.0352510  22.7488950  73.3338080
  63.2277940  21.6206840  73.9396380  65.8822340  27.4490040  80.3370190
  66.5264560  27.6549420  81.0143610  66.2451780  26.6878440  79.8841040
  59.4801510  12.2821350  73.5800410  59.3516140  12.2739250  74.5285330
  58.6563530  12.6204440  73.2291420  67.1554420  25.4522390  79.0547640
  67.7976650  24.7515550  79.1679810  67.6803770  26.2320830  78.8744530
  71.0010140  25.7371010  68.7786780  70.7747720  25.0201450  69.3711420
  70.6106340  25.4883450  67.9408530  68.9292040  26.2517290  82.2583700
  69.2648280  26.8383980  82.9361620  68.0092380  26.1210000  82.4881490
  56.7826170  29.7637870  69.5531240  57.1423810  30.3627210  68.8988510
  56.6418510  30.3097760  70.3266270  56.4795440  14.0412470  83.0407110
  55.7653960  14.2409390  83.6459720  56.8990480  13.2652040  83.4121910
  70.5826390  23.6542950  70.4400940  70.2948090  24.1155640  71.2278820
  71.3778560  23.1940720  70.7085160  56.7668030  28.0292730  84.0273640
  56.8759150  27.0887470  83.8869030  56.1148590  28.2947480  83.3787370
  64.7580620  26.3008620  85.4271760  64.4377490  25.5817860  85.9717450
  64.0838980  26.9763690  85.5007820  62.7994790  27.1469070  70.3704910
  62.7904890  27.8798760  69.7549420  61.8793150  26.9000650  70.4631870
  58.4001430  22.3683960  71.1151670  57.7929380  23.1082860  71.1246970
  58.8750780  22.4583320  70.2889870  67.9734220  16.5334780  80.7908560
  68.3415040  15.7129990  81.1188130  67.1132420  16.5936670  81.2064210
  71.3396250  15.4891720  71.5996120  70.7109410  15.5937390  70.8854350
  70.8448170  15.7088500  72.3890000  65.7854390  27.2097310  69.0330100
  65.8866370  27.0061300  68.1032080  64.8856130  26.9555590  69.2377880
  63.3080280  17.7677670  73.0154000  62.5996430  18.2364010  73.4567610
  63.5924760  17.1099680  73.6499190  64.9336210  19.1874370  81.0146530
  65.4321460  19.6620190  81.6798380  65.0759160  18.2637890  81.2216560
  67.3395710  14.4928330  74.4549790  67.2163490  14.5114460  73.5059300
  68.2880270  14.5407270  74.5748190  64.4272500  29.7283630  73.7277770
  64.6814000  29.6905020  72.8057140  63.4784980  29.6016960  73.7206020
  61.5115300  16.0762750  70.3904710  62.3605830  16.5132900  70.3244900
  61.1446570  16.3883010  71.2176770  72.1403070  15.4042330  81.8574920
  71.6376670  16.1447730  82.1968730  72.9559730  15.7926330  81.5411710
  70.4325080  20.6475510  75.3036280  69.4915220  20.6625740  75.4783970
  70.7469150  19.8611470  75.7496580  60.4106720  22.3295110  68.8640240
  61.1769990  22.2176470  69.4265670  60.4881410  21.6333080  68.2117010
  59.1053480  19.7620180  69.5473130  59.1857070  18.8147690  69.6590530
  59.9973230  20.0927060  69.6533790  72.4350660  27.8184360  76.9790540
  72.5598080  28.6415530  77.4514350  73.3016220  27.6075090  76.6314690
  59.9068190  29.9115570  76.6507670  60.6430670  29.3631030  76.9216240
  60.2909110  30.7771580  76.5113660  56.7913670  25.9789140  72.5249180
  55.8653450  26.2210280  72.5154590  57.2570100  26.8063400  72.4033930
  58.9126470  29.0961640  85.8393250  59.7139200  29.4173690  86.2528650
  58.3978290  28.7357220  86.5613160  63.0170500  29.0845880  68.4733240
  63.8099110  29.3734710  68.0215030  62.4974850  28.6538050  67.7945720
  67.7491100  25.2041510  85.7868660  67.1429260  25.2273110  85.0464410
  67.4445210  24.4724550  86.3235910  69.1791470  28.9321800  84.3978070
  70.1313220  28.8479820  84.3478310  69.0319690  29.5963510  85.0711860
  72.0700670  28.3116010  69.8969980  71.7842180  27.8981150  69.0824160
  71.8720220  29.2403720  69.7770500  56.6324280  21.5835100  84.7829300
  57.1363300  21.0042380  85.3545530  55.8931700  21.8675330  85.3205670
  63.5347900  24.3049290  68.3375590  63.4298540  23.6901640  69.0636970
  63.3672120  23.7815180  67.5538600  63.6862220  22.9906090  84.3164820
  62.9207890  23.5591090  84.2319490  63.8678180  22.6982300  83.4233050
  66.7750630  23.3669320  68.9417580  66.2260730  23.8138620  69.5860320
  67.3969890  22.8618570  69.4655250  70.8285570  24.7211420  84.8739840
  71.5695040  25.0587180  84.3707300  70.0658250  24.8903480  84.3209610
  58.6647360  19.7264690  85.6779370  58.7052700  19.4278560  86.5864600
  59.5192860  20.1272300  85.5186890  62.4425750  22.3260240  70.8382880
  62.8642170  22.1600110  71.6814270  62.5676590  21.5160470  70.3438020
  60.6053170  18.3056790  83.6453860  60.0749630  17.8147740  83.0177200
  61.2741240  18.7340990  83.1111790  64.9553390  21.3497850  68.0859980
  65.4759050  20.6346870  67.7201130  65.6021790  21.9883720  68.3860490
  69.5031230  22.7726250  83.4095050  69.9172250  22.9271330  84.2585470
  68.5682230  22.8981470  83.5720830  69.9753400  20.1122410  85.4134200
  70.5574170  19.3574730  85.3254680  70.1515170  20.6429850  84.6365680
  61.0925470  15.2719160  83.7251150  60.9982340  14.6539910  83.0002020
  60.5122860  15.9985450  83.4981060  63.8586910  13.8292400  80.7578540
  63.4104210  13.8516660  79.9124090  63.2252110  13.4311420  81.3548840
  64.2646460  22.7246730  81.3790980  64.6834570  23.5679460  81.2067220
  63.3455090  22.8618770  81.1497760  66.6010360  20.4562910  82.7628820
  66.7206570  19.8604050  83.5023660  67.4604360  20.4932600  82.3430120
  68.9398260  21.0100100  81.3391330  68.4133480  21.5342720  80.7356470
  69.2829600  21.6427490  81.9701060  61.3384650  18.3993470  67.7841040
  61.1373710  17.5360830  68.1454380  61.1676700  18.3126830  66.8462640
  62.1153880  29.0299740  82.4948710  61.5774970  29.7545800  82.1757410
  62.3687840  28.5530080  81.7046050  63.3679130  16.9984260  84.0204640
  63.9578820  16.6900110  84.7082460  62.5499370  16.5264010  84.1764540
  68.1872560  16.6150070  84.2537660  67.4988080  15.9531610  84.1887650
  68.9078580  16.1688340  84.6986120  68.8172960  13.2101700  70.3127920
  69.0975250  12.3669600  70.6687340  68.0438690  13.4424810  70.8266670
  60.1367450  15.4994090  67.7718920  60.4393350  15.5061520  66.8638070
  60.8762040  15.1491950  68.2686580  64.9716090  30.2650950  82.7535360
  64.8974790  31.1686090  83.0607730  64.0694930  29.9462850  82.7257430
  63.3552380  14.4428710  68.7575120  63.0074380  13.7652700  68.1777570
  63.5565150  13.9818220  69.5718510  65.5201420  29.4309460  70.3761720
  66.4152210  29.7694430  70.3980480  65.5519050  28.7088870  69.7486000
  59.1597580  24.8036510  68.6048720  59.5972450  25.3466180  69.2606300
  59.6445310  23.9783460  68.6145060  56.3743380  27.5925540  76.0568980
  56.7046390  26.7246600  75.8247620  56.8034380  27.7984060  76.8873940
  60.9705300  25.9234550  73.7170950  60.6700840  25.7999520  74.6174860
  60.8642790  25.0643140  73.3086680  56.8633590  28.4596130  78.7950610
  56.4264580  28.6396930  79.6274760  57.4311270  29.2170750  78.6532330
  72.4995770  27.9613130  83.0827920  71.8997760  28.0205690  82.3391840
  72.6289670  27.0218110  83.2124770  73.7397220  25.7030950  68.4197630
  72.9090180  25.7707600  68.8904860  73.9169050  26.5935070  68.1164490
  73.1953680  22.4478430  70.9231830  73.9572590  23.0175080  71.0291520
  73.2108050  21.8805630  71.6940140  56.6958020  20.9716360  75.1539490
  56.0406860  20.7028000  74.5099190  57.5335970  20.8620840  74.7041470
  74.2013650  23.3028530  75.7673760  74.5722480  22.5195850  75.3609730
  74.8415580  23.9917630  75.5891060  71.1847410  24.6865110  81.1804080
  70.3707250  25.1162270  81.4429870  71.5921610  25.2983520  80.5673130
  73.2472850  22.7412800  68.0804350  73.5221690  23.6491680  67.9523570
  73.0583590  22.6775330  69.0166340  69.6448460  15.7657650  69.3757980
  70.0633340  15.5788630  68.5354640  69.3384520  14.9136700  69.6860910
  73.1438190  20.6781790  73.0733780  72.7681790  19.9109720  72.6415070
  72.4141310  21.0604490  73.5608710  57.7333950  21.3568930  79.6942830
  58.1006990  21.2696330  80.5738850  57.1644770  20.5935480  79.5949690
  72.5337810  19.8253310  82.7073300  72.3023900  19.5966060  81.8071250
  72.7942360  20.7452860  82.6618190  57.2849950  18.2678020  83.6001250
  56.3906000  18.2344780  83.9394960  57.8247500  18.4664810  84.3652500
  70.9725880  15.0509740  85.4853000  71.8496060  15.0593140  85.8687000
  70.9846720  14.3140580  84.8745350  55.9096100  18.1815290  71.0964820
  55.0060180  18.4445490  70.9216480  56.3936720  18.4526460  70.3164780
  72.4189150  18.9039280  76.3741020  72.9426630  18.4101930  75.7431190
  73.0048570  19.0389640  77.1188590  72.5978870  18.9879150  79.8960570
  71.6481580  18.9542690  80.0105560  72.7791880  19.8979260  79.6610340
  58.4523310  17.2380830  69.0059200  59.1615010  16.8164050  68.5206480
  57.7363250  17.3056060  68.3742550  58.0997470  13.2920160  68.0461850
  58.8225600  13.8329100  68.3643070  58.3721990  13.0183580  67.1703390
  71.9089120  18.1612630  72.3133430  72.4048240  17.9283500  73.0982310
  71.7105190  17.3224470  71.8971070  57.7889660  12.5426350  77.9484470
  58.4365850  11.9923730  77.5079630  58.2091500  12.7969500  78.7700280
  73.3376280  16.7973580  74.8471110  73.2275560  16.6429620  75.7853380
  74.0983870  16.2694520  74.6046520  71.6842000  12.7367710  81.3054110
  72.3214220  13.3501850  81.6713300  71.8316890  12.7728370  80.3603340
  74.2266550  14.6281500  68.0877250  75.1515860  14.4962680  67.8795540
  74.2042340  14.7074320  69.0413700  74.3005040  15.3992160  70.7133960
  73.5056540  15.3337280  71.2426870  74.5048320  16.3342800  70.7019310
  71.2423460  29.4383710  74.7072350  71.8382530  29.1168280  74.0306770
  71.5001610  28.9655530  75.4985620  57.5421660  12.6982020  80.6909790
  57.1936480  13.1545840  81.4567970  57.2109360  11.8039150  80.7732220
  59.1486030  25.8701620  84.8562980  59.1055660  25.4994530  85.7377440
  59.2797040  26.8079190  84.9964800  62.8492060  27.4261210  80.4572700
  62.6083420  27.6935770  79.5703220  63.7894700  27.5966940  80.5123560
  65.0546480  13.8893900  84.2129210  64.9935370  14.4815730  84.9624620
  65.9946860  13.7819860  84.0679470  67.6921040  13.5463960  83.8521500
  68.3061450  13.8643250  83.1902580  68.2370600  13.0612550  84.4717360
  74.1096220  29.4455590  81.2583340  73.6154500  29.8424460  80.5410470
  73.5009510  28.8204800  81.6520620  58.2142300  12.2258220  83.9660560
  58.7625290  12.0446270  83.2026670  58.2797610  11.4352330  84.5016870
  58.9874060  28.8163870  81.9760760  58.3934380  28.6848570  82.7150800
  58.9797900  27.9802010  81.5102860  68.4329080  12.1096100  80.1790790
  67.5588920  12.4431210  79.9763720  68.3239830  11.6369280  81.0042660
  69.3401060  14.3166970  81.5632510  69.0114420  13.5018730  81.1834240
  70.2883360  14.2736780  81.4398200  71.7935670  30.0879010  78.5370080
  71.3338640  30.8394820  78.1628100  71.1648130  29.3685480  78.4784880
  58.6186290  26.1822250  80.9268800  57.8920350  25.5627540  80.8594750
  58.6795440  26.5762860  80.0566880  62.2231390  28.3967250  77.7118210
  62.7396410  27.7854610  77.1866470  62.8728770  28.8996030  78.2029220
  64.9626890  29.2875740  78.5387190  65.2504700  29.0330040  77.6620200
  65.4750110  28.7353100  79.1292760  66.1803900  13.0265940  79.1183700
  65.3975690  13.5011440  79.3980460  65.8866830  12.1220770  79.0096880
  70.7324970  13.7289040  77.1632790  71.1733060  13.6734140  76.3154390
  70.4632560  14.6447050  77.2342970  72.5963540  13.3604280  75.1741610
  72.5351940  12.4165500  75.0272630  73.3755570  13.4684370  75.7195070
  56.9016290  29.4996640  74.1365560  56.7338330  28.8667320  74.8347450
  56.0350800  29.7056040  73.7859750  57.5244310  13.3313420  71.6397420
  58.2823670  13.4442300  71.0661450  57.0621480  14.1682620  71.5940850
  64.0658120  15.4452690  74.6299730  63.2532630  15.0709580  74.2895610
  64.5699760  14.6897770  74.9320920  68.5683100  12.1095140  75.8682800
  69.1712470  12.6815350  76.3431320  67.8276090  12.6734580  75.6456700
  71.7117700  12.5116700  71.1423080  71.9068330  13.4100150  71.4090510
  70.9247570  12.2803780  71.6356030  58.5078990  28.1929870  71.5815700
  57.9826610  28.5737900  70.8777660  58.4323570  28.8180640  72.3025410
  59.8969460  13.8577470  70.1799390  60.4262220  13.0707270  70.0507340
  60.5297780  14.5368660  70.4134920  62.0907300  13.5952610  73.2344780
  61.4610040  12.8939920  73.4014910  61.5512440  14.3556740  73.0177940
  65.0299250  30.2091840  85.9055390  65.9566560  29.9736110  85.9491350
  65.0149680  31.0363840  85.4241420  73.2644310  29.7517410  72.9029640
  73.4396500  29.0655150  72.2590560  72.5665880  30.2764460  72.5106310
  62.2162860  12.8736590  85.6697270  61.9347130  13.3770190  84.9058090
  62.5982560  12.0758340  85.3039400  61.1071960  30.1412250  70.4564950
  61.8390780  29.8571530  69.9088840  61.3665630  29.9025530  71.3464330
  60.2686750  26.2576980  70.4611280  59.6395630  26.7262080  71.0097110
  60.3834580  25.4126200  70.8957470  68.8178320  12.2890170  86.2477740
  68.7043770  12.6084780  87.1429260  69.6348060  12.6902680  85.9515020
  71.5976810  29.4361700  85.7296430  72.3902130  28.9410930  85.5222390
  71.8909960  30.1151840  86.3372040  67.7236470  20.3082640  56.6112480
  67.6430520  19.3937250  56.3404190  67.3100890  20.8049710  55.9052190
  65.8554510  22.0861660  58.4921750  65.0796610  21.6062100  58.7820320
  66.5067440  21.4067310  58.3177910  59.8720340  22.3981470  59.3697510
  59.0405220  22.1430180  59.7694020  60.4801320  22.4692240  60.1055430
  69.8761940  26.4921850  57.2720880  69.4143470  25.7209090  57.6008050
  70.6887490  26.5187920  57.7773330  59.8521600  26.4321560  59.5655530
  60.1549640  25.5419300  59.3865750  60.5965190  26.9891780  59.3377780
  58.2812290  17.3583360  53.1539900  57.3928990  17.6999330  53.0519780
  58.5653480  17.1583680  52.2620730  56.2445300  19.9589010  59.0379600
  56.8161410  19.1911210  59.0383240  56.2446840  20.2577770  58.1286210
  66.1025250  28.7779860  56.8924870  65.4836690  29.2337360  56.3219310
  66.9577030  28.9331320  56.4914570  65.2963500  24.7618850  58.4991910
  65.2271780  23.8208790  58.3381040  66.0583360  24.8520260  59.0714480
  57.4870170  15.3673370  60.8248530  57.3073010  14.4699120  61.1051290
  57.0850250  15.9145240  61.4995480  66.3268670  17.5689230  58.7260840
  66.7033490  16.6961110  58.6134510  66.2288180  17.9047930  57.8351280
  60.4573680  15.9414860  54.1878280  60.5640430  16.8418590  54.4947040
  59.5466040  15.8932830  53.8972930  70.1092790  15.0639670  55.6589180
  70.9302410  14.5736240  55.7014660  70.1426870  15.6537330  56.4121020
  58.1056840  17.8633870  59.4330870  58.7866950  18.1272240  60.0518270
  57.7904890  17.0234740  59.7668880  62.2981410  18.9101230  58.5203460
  62.8059630  19.4082200  59.1608480  62.8294650  18.1336430  58.3442820
  74.3992340  17.0806420  62.2232810  73.6944510  17.4688130  61.7047920
  74.6650260  17.7756710  62.8253740  60.5817510  13.5499790  62.7866880
  60.5835950  14.0672180  61.9812780  59.7521820  13.0729970  62.7636810
  66.9688600  23.6619100  54.2856780  66.3505870  24.1268550  53.7219500
  67.4811850  24.3546580  54.7026290  61.8320360  23.1894970  60.9640380
  61.4989740  23.8163890  61.6061450  62.0087040  23.7156850  60.1842050
  70.3454270  17.0040050  58.4316720  69.6409840  17.2924940  59.0119830
  70.7066430  17.8140160  58.0716280  60.2632840  15.2609750  60.7937330
  60.6049650  16.1051800  60.4991200  59.3248650  15.4093490  60.9102670
  61.0439460  25.1575770  62.7789560  61.6613460  25.8326850  62.4974010
  60.1832580  25.5663750  62.6877060  56.3371800  24.3475630  51.6596410
  55.9599780  24.8362730  50.9281310  56.5944870  25.0200910  52.2902940
  71.9617050  26.6215180  60.6944200  71.2780570  27.2914290  60.6860870
  72.5011340  26.8195830  59.9289060  73.4141190  16.4494840  58.8225930
  72.4666100  16.4833820  58.9541360  73.7391180  17.2633790  59.2075290
  63.9460730  12.7492020  57.1181920  64.2535710  12.1938910  56.4017420
  63.0161430  12.8836480  56.9354910  69.4975790  28.4659310  59.4089380
  69.5102950  28.0621600  58.5411640  68.9451010  29.2406600  59.3050810
  70.7921210  25.1875530  54.4979550  70.6817540  24.2449860  54.6228970
  70.7889460  25.5491170  55.3842310  68.8961230  23.3689150  60.7371990
  69.3130020  23.1549260  59.9025450  69.6201050  23.6261940  61.3080610
  66.3341490  20.8140850  53.8542040  65.4070770  20.7478230  54.0830510
  66.4866310  21.7520980  53.7397280  66.3210570  17.0857850  50.8509200
  65.3814240  17.2471810  50.9361660  66.6393830  17.8043530  50.3045190
  72.8423330  21.7676370  60.8288230  72.0141960  21.8369460  60.3538360
  73.4373810  22.3530680  60.3604060  70.3638780  22.3761150  54.3577290
  69.7451200  22.0380700  53.7103590  70.3463230  21.7320910  55.0656480
  69.8065340  18.5545690  61.7743100  69.3936520  19.3799400  62.0283090
  69.0741290  17.9690730  61.5819460  61.9398130  21.3405590  56.6361770
  61.5355130  20.6282840  56.1407670  62.0261250  20.9958830  57.5249810
  62.4079830  25.0273150  58.8000980  62.1108120  24.4218620  58.1208760
  63.3579650  25.0650460  58.6890340  60.6526750  18.1148800  60.4160810
  61.2041340  18.2244140  59.6414060  61.1670260  18.4886400  61.1316040
  70.4965440  28.6005020  62.4624080  70.0196000  29.4077210  62.2696690
  69.8127230  27.9483350  62.6150290  61.4998260  24.7654840  65.4508780
  60.6026790  24.9894810  65.6982180  61.5251130  24.8889780  64.5020180
  68.5403480  21.6147960  51.3650040  68.9796760  20.7770390  51.2187860
  69.2531900  22.2477360  51.4514180  60.3269480  21.6368160  64.0266150
  60.1877250  22.5090960  64.3953550  59.4450840  21.2940970  63.8814090
  66.6498860  26.5544030  55.3331280  67.0894770  27.2968360  54.9186670
  66.5885750  26.7970600  56.2570240  62.1249830  27.5789860  66.2351300
  62.0965260  27.9832810  65.3679730  61.9614800  26.6500220  66.0722900
  72.1220620  12.8690770  49.6791080  71.8093280  12.9617600  50.5790150
  72.8833090  13.4471800  49.6288510  58.6402760  20.2350570  54.1368420
  58.5200360  20.9612660  53.5249690  58.3303650  19.4653480  53.6596330
  74.0764650  28.3616960  67.5315470  74.5524370  28.8399850  68.2104550
  74.6971810  28.2934450  66.8060970  56.2788130  23.4065710  59.9437060
  56.3568550  23.5414480  58.9992780  56.8929810  22.6981600  60.1365180
  57.5235760  25.1065900  56.3543240  57.1163840  25.2480490  55.4996840
  58.4148770  24.8226060  56.1514450  73.4797900  25.5529810  64.6915480
  73.6060960  25.3141690  63.7732660  73.5219280  24.7214350  65.1637560
  67.3414640  29.2557810  63.2610290  67.8559310  29.1665820  64.0632720
  66.4983720  29.6017510  63.5538200  69.3169040  29.5413150  52.6894290
  69.1570180  29.2516090  53.5876120  69.1515750  28.7653280  52.1539520
  61.7957420  29.3211680  54.4665910  61.6199900  28.4047220  54.2533710
  60.9413160  29.6798970  54.7063710  69.0195170  27.0500710  51.2492290
  68.3260330  27.0478000  50.5894570  69.7618030  26.6260030  50.8186460
  68.5845100  28.6763420  55.3240780  69.0402050  27.8952800  55.6379400
  68.9237620  29.3870240  55.8681960  73.3321910  17.6062270  65.6565220
  72.7166180  18.1141940  65.1280680  73.0118330  16.7060600  65.5991160
  56.3347650  24.4479880  62.4831520  56.4978690  23.9785240  61.6650890
  56.8000100  23.9403440  63.1480360  61.1066420  13.5785640  57.5192090
  60.6634570  14.3595180  57.1876610  61.6651410  13.9015530  58.2263030
  65.3936230  16.4454160  63.1227410  64.9315600  16.6537180  63.9347350
  64.9914340  15.6313510  62.8198080  70.3940740  17.6663110  64.2524070
  69.5434330  17.3668860  64.5733140  70.2342530  17.9105120  63.3407890
  67.4890450  19.1664860  66.3522860  67.8143860  18.3328610  66.0125090
  68.2770780  19.6893380  66.5001190  64.2225240  13.1996340  52.3997920
  63.5979420  13.1956210  53.1251230  64.1355360  12.3327300  52.0033890
  63.1442320  14.1232970  59.3781690  63.4414650  15.0295800  59.2973710
  63.6927880  13.6351750  58.7641260  60.8980640  18.7019210  55.2473340
  60.6721560  18.4856380  56.1519960  60.1173170  19.1347670  54.9019310
  68.1278400  18.7082580  53.8463990  67.5287290  19.4318380  53.6627610
  68.6758010  18.6459360  53.0640440  63.3379850  19.6004790  65.9133610
  63.2423450  18.6599520  65.7634010  64.1811830  19.8219860  65.5181680
  66.7343270  17.3446120  55.8767270  67.1272840  17.6618320  55.0635960
  67.0960120  16.4658000  55.9911790  58.4690390  16.0118460  64.0667390
  58.0753780  16.8593670  64.2740170  57.7808790  15.3744830  64.2576030
  65.0435440  16.0953430  67.1364130  64.3533760  15.9025630  67.7710220
  65.7867740  16.3788070  67.6688430  55.7707440  13.9346920  58.0997470
  55.4820490  14.5049780  58.8122450  56.5153200  13.4551370  58.4628700
  55.9577670  17.8767040  49.3100190  55.8752340  18.8197800  49.4515180
  55.6060730  17.7341950  48.4312540  67.3198410  19.9351870  59.9718050
  66.5879530  20.4438680  60.3208150  66.9222750  19.1181850  59.6706830
  63.7575800  16.6106070  58.3770540  63.7611860  16.1696020  57.5275080
  64.6526920  16.9323400  58.4842360  59.6078180  16.4932560  57.3364750
  59.2678230  16.9707790  58.0931800  58.8455500  16.0397680  56.9765850
  63.8195950  17.6118150  51.3677300  63.9408770  17.5704630  52.3163120
  63.4344460  18.4742300  51.2124030  67.7824320  15.3885550  59.3840990
  67.7997060  15.8394200  60.2282840  67.5339900  14.4891190  59.5974430
  62.8317450  19.9219290  50.7660600  62.2634350  19.4737540  50.1396510
  63.5406450  20.2812070  50.2325750  71.2095070  12.8017730  65.2227370
  71.5340840  12.0707390  65.7485350  71.2451580  12.4831370  64.3208360
  57.9086630  23.8231310  64.6427330  57.5241420  23.1824980  65.2410290
  58.2198820  24.5267430  65.2122060  64.0583770  20.6707850  60.1235950
  64.4253900  20.1966420  60.8697290  63.8688830  21.5449420  60.4644290
  56.9224260  15.4151540  56.2529420  56.6371180  15.0507210  57.0908040
  56.8603120  14.6832000  55.6392560  61.8483140  19.7116490  62.4420160
  61.5440210  20.5908470  62.6670520  62.8029600  19.7716280  62.4777600
  60.3764930  23.9177480  53.0387010  59.6027190  23.3775100  52.8785730
  61.1059560  23.3984090  52.7004770  71.1352910  22.9142840  58.8313400
  71.8552030  23.4098130  58.4409510  70.9334730  22.2360730  58.1867270
  66.5962850  14.3080800  52.9742790  65.7827460  13.8093970  52.8988100
  66.4024800  15.1479050  52.5579140  66.5171710  22.9851900  64.7182400
  66.4509020  22.0647570  64.4639990  65.8876850  23.0827340  65.4327040
  69.3111240  18.6800450  51.2704950  70.1990860  18.9917680  51.0956290
  69.2816330  17.8072700  50.8785530  60.4202330  23.5857860  56.6765820
  60.9381000  22.7826120  56.6222710  59.9686350  23.5237000  57.5182650
  65.3071830  24.8524140  51.9493120  65.6487530  25.5966370  51.4536440
  64.4784540  25.1655260  52.3117950  57.9046870  20.5519230  63.5891520
  57.5461810  21.2173080  64.1764860  57.6101430  19.7202780  63.9604140
  61.1059990  21.0103470  66.4731070  60.8060130  21.1560650  65.5758890
  61.8771230  20.4508760  66.3804460  66.4488440  25.8072470  64.4686200
  66.4632980  24.8753430  64.2505110  65.7413540  25.8932230  65.1075970
  71.5825510  19.9912290  50.7384810  71.4989230  20.4226510  49.8881250
  72.3019700  20.4510640  51.1711630  72.6599650  22.4479810  63.8154780
  71.9347840  23.0408590  63.6184170  73.1875110  22.4403350  63.0168150
  72.6112760  26.8454550  53.4666940  71.9688920  26.1910170  53.7410660
  72.2243420  27.2509640  52.6907610  68.1899240  24.1739980  57.3138630
  68.5423060  23.5768110  56.6540000  67.3061570  23.8484210  57.4846880
  64.2762520  24.9337670  54.7209040  64.9633650  25.4806880  55.1016630
  63.4894940  25.4778400  54.7558650  56.4154920  20.5510490  50.2126120
  57.2849770  20.8335290  50.4962040  55.9245240  21.3646360  50.0974930
  63.5789730  21.9383700  54.3334400  64.0352510  22.7488950  54.5594590
  63.2277940  21.6206840  55.1652890  65.8822340  27.4490040  61.5626700
  66.5264560  27.6549420  62.2400120  66.2451780  26.6878440  61.1097550
  59.4801510  12.2821350  54.8056920  59.3516140  12.2739250  55.7541840
  58.6563530  12.6204440  54.4547930  67.1554420  25.4522390  60.2804150
  67.7976650  24.7515550  60.3936320  67.6803770  26.2320830  60.1001040
  71.0010140  25.7371010  50.0043290  70.7747720  25.0201450  50.5967930
  70.6106340  25.4883450  49.1665040  68.9292040  26.2517290  63.4840210
  69.2648280  26.8383980  64.1618130  68.0092380  26.1210000  63.7138000
  56.7826170  29.7637870  50.7787750  57.1423810  30.3627210  50.1245020
  56.6418510  30.3097760  51.5522780  56.4795440  14.0412470  64.2663620
  55.7653960  14.2409390  64.8716230  56.8990480  13.2652040  64.6378420
  70.5826390  23.6542950  51.6657450  70.2948090  24.1155640  52.4535330
  71.3778560  23.1940720  51.9341670  56.7668030  28.0292730  65.2530150
  56.8759150  27.0887470  65.1125540  56.1148590  28.2947480  64.6043880
  64.7580620  26.3008620  66.6528270  64.4377490  25.5817860  67.1973960
  64.0838980  26.9763690  66.7264330  62.7994790  27.1469070  51.5961420
  62.7904890  27.8798760  50.9805930  61.8793150  26.9000650  51.6888380
  58.4001430  22.3683960  52.3408180  57.7929380  23.1082860  52.3503480
  58.8750780  22.4583320  51.5146380  67.9734220  16.5334780  62.0165070
  68.3415040  15.7129990  62.3444640  67.1132420  16.5936670  62.4320720
  71.3396250  15.4891720  52.8252630  70.7109410  15.5937390  52.1110860
  70.8448170  15.7088500  53.6146510  65.7854390  27.2097310  50.2586610
  65.8866370  27.0061300  49.3288590  64.8856130  26.9555590  50.4634390
  63.3080280  17.7677670  54.2410510  62.5996430  18.2364010  54.6824120
  63.5924760  17.1099680  54.8755700  64.9336210  19.1874370  62.2403040
  65.4321460  19.6620190  62.9054890  65.0759160  18.2637890  62.4473070
  67.3395710  14.4928330  55.6806300  67.2163490  14.5114460  54.7315810
  68.2880270  14.5407270  55.8004700  64.4272500  29.7283630  54.9534280
  64.6814000  29.6905020  54.0313650  63.4784980  29.6016960  54.9462530
  61.5115300  16.0762750  51.6161220  62.3605830  16.5132900  51.5501410
  61.1446570  16.3883010  52.4433280  72.1403070  15.4042330  63.0831430
  71.6376670  16.1447730  63.4225240  72.9559730  15.7926330  62.7668220
  70.4325080  20.6475510  56.5292790  69.4915220  20.6625740  56.7040480
  70.7469150  19.8611470  56.9753090  60.4106720  22.3295110  50.0896750
  61.1769990  22.2176470  50.6522180  60.4881410  21.6333080  49.4373520
  59.1053480  19.7620180  50.7729640  59.1857070  18.8147690  50.8847040
  59.9973230  20.0927060  50.8790300  72.4350660  27.8184360  58.2047050
  72.5598080  28.6415530  58.6770860  73.3016220  27.6075090  57.8571200
  59.9068190  29.9115570  57.8764180  60.6430670  29.3631030  58.1472750
  60.2909110  30.7771580  57.7370170  56.7913670  25.9789140  53.7505690
  55.8653450  26.2210280  53.7411100  57.2570100  26.8063400  53.6290440
  58.9126470  29.0961640  67.0649760  59.7139200  29.4173690  67.4785160
  58.3978290  28.7357220  67.7869670  63.0170500  29.0845880  49.6989750
  63.8099110  29.3734710  49.2471540  62.4974850  28.6538050  49.0202230
  67.7491100  25.2041510  67.0125170  67.1429260  25.2273110  66.2720920
  67.4445210  24.4724550  67.5492420  69.1791470  28.9321800  65.6234580
  70.1313220  28.8479820  65.5734820  69.0319690  29.5963510  66.2968370
  72.0700670  28.3116010  51.1226490  71.7842180  27.8981150  50.3080670
  71.8720220  29.2403720  51.0027010  56.6324280  21.5835100  66.0085810
  57.1363300  21.0042380  66.5802040  55.8931700  21.8675330  66.5462180
  63.5347900  24.3049290  49.5632100  63.4298540  23.6901640  50.2893480
  63.3672120  23.7815180  48.7795110  63.6862220  22.9906090  65.5421330
  62.9207890  23.5591090  65.4576000  63.8678180  22.6982300  64.6489560
  66.7750630  23.3669320  50.1674090  66.2260730  23.8138620  50.8116830
  67.3969890  22.8618570  50.6911760  70.8285570  24.7211420  66.0996350
  71.5695040  25.0587180  65.5963810  70.0658250  24.8903480  65.5466120
  58.6647360  19.7264690  66.9035880  58.7052700  19.4278560  67.8121110
  59.5192860  20.1272300  66.7443400  62.4425750  22.3260240  52.0639390
  62.8642170  22.1600110  52.9070780  62.5676590  21.5160470  51.5694530
  60.6053170  18.3056790  64.8710370  60.0749630  17.8147740  64.2433710
  61.2741240  18.7340990  64.3368300  64.9553390  21.3497850  49.3116490
  65.4759050  20.6346870  48.9457640  65.6021790  21.9883720  49.6117000
  69.5031230  22.7726250  64.6351560  69.9172250  22.9271330  65.4841980
  68.5682230  22.8981470  64.7977340  69.9753400  20.1122410  66.6390710
  70.5574170  19.3574730  66.5511190  70.1515170  20.6429850  65.8622190
  61.0925470  15.2719160  64.9507660  60.9982340  14.6539910  64.2258530
  60.5122860  15.9985450  64.7237570  63.8586910  13.8292400  61.9835050
  63.4104210  13.8516660  61.1380600  63.2252110  13.4311420  62.5805350
  64.2646460  22.7246730  62.6047490  64.6834570  23.5679460  62.4323730
  63.3455090  22.8618770  62.3754270  66.6010360  20.4562910  63.9885330
  66.7206570  19.8604050  64.7280170  67.4604360  20.4932600  63.5686630
  68.9398260  21.0100100  62.5647840  68.4133480  21.5342720  61.9612980
  69.2829600  21.6427490  63.1957570  61.3384650  18.3993470  49.0097550
  61.1373710  17.5360830  49.3710890  61.1676700  18.3126830  48.0719150
  62.1153880  29.0299740  63.7205220  61.5774970  29.7545800  63.4013920
  62.3687840  28.5530080  62.9302560  63.3679130  16.9984260  65.2461150
  63.9578820  16.6900110  65.9338970  62.5499370  16.5264010  65.4021050
  68.1872560  16.6150070  65.4794170  67.4988080  15.9531610  65.4144160
  68.9078580  16.1688340  65.9242630  68.8172960  13.2101700  51.5384430
  69.0975250  12.3669600  51.8943850  68.0438690  13.4424810  52.0523180
  60.1367450  15.4994090  48.9975430  60.4393350  15.5061520  48.0894580
  60.8762040  15.1491950  49.4943090  64.9716090  30.2650950  63.9791870
  64.8974790  31.1686090  64.2864240  64.0694930  29.9462850  63.9513940
  63.3552380  14.4428710  49.9831630  63.0074380  13.7652700  49.4034080
  63.5565150  13.9818220  50.7975020  65.5201420  29.4309460  51.6018230
  66.4152210  29.7694430  51.6236990  65.5519050  28.7088870  50.9742510
  59.1597580  24.8036510  49.8305230  59.5972450  25.3466180  50.4862810
  59.6445310  23.9783460  49.8401570  56.3743380  27.5925540  57.2825490
  56.7046390  26.7246600  57.0504130  56.8034380  27.7984060  58.1130450
  60.9705300  25.9234550  54.9427460  60.6700840  25.7999520  55.8431370
  60.8642790  25.0643140  54.5343190  56.8633590  28.4596130  60.0207120
  56.4264580  28.6396930  60.8531270  57.4311270  29.2170750  59.8788840
  72.4995770  27.9613130  64.3084430  71.8997760  28.0205690  63.5648350
  72.6289670  27.0218110  64.4381280  73.7397220  25.7030950  49.6454140
  72.9090180  25.7707600  50.1161370  73.9169050  26.5935070  49.3421000
  73.1953680  22.4478430  52.1488340  73.9572590  23.0175080  52.2548030
  73.2108050  21.8805630  52.9196650  56.6958020  20.9716360  56.3796000
  56.0406860  20.7028000  55.7355700  57.5335970  20.8620840  55.9297980
  74.2013650  23.3028530  56.9930270  74.5722480  22.5195850  56.5866240
  74.8415580  23.9917630  56.8147570  71.1847410  24.6865110  62.4060590
  70.3707250  25.1162270  62.6686380  71.5921610  25.2983520  61.7929640
  73.2472850  22.7412800  49.3060860  73.5221690  23.6491680  49.1780080
  73.0583590  22.6775330  50.2422850  69.6448460  15.7657650  50.6014490
  70.0633340  15.5788630  49.7611150  69.3384520  14.9136700  50.9117420
  73.1438190  20.6781790  54.2990290  72.7681790  19.9109720  53.8671580
  72.4141310  21.0604490  54.7865220  57.7333950  21.3568930  60.9199340
  58.1006990  21.2696330  61.7995360  57.1644770  20.5935480  60.8206200
  72.5337810  19.8253310  63.9329810  72.3023900  19.5966060  63.0327760
  72.7942360  20.7452860  63.8874700  57.2849950  18.2678020  64.8257760
  56.3906000  18.2344780  65.1651470  57.8247500  18.4664810  65.5909010
  70.9725880  15.0509740  66.7109510  71.8496060  15.0593140  67.0943510
  70.9846720  14.3140580  66.1001860  55.9096100  18.1815290  52.3221330
  55.0060180  18.4445490  52.1472990  56.3936720  18.4526460  51.5421290
  72.4189150  18.9039280  57.5997530  72.9426630  18.4101930  56.9687700
  73.0048570  19.0389640  58.3445100  72.5978870  18.9879150  61.1217080
  71.6481580  18.9542690  61.2362070  72.7791880  19.8979260  60.8866850
  58.4523310  17.2380830  50.2315710  59.1615010  16.8164050  49.7462990
  57.7363250  17.3056060  49.5999060  58.0997470  13.2920160  49.2718360
  58.8225600  13.8329100  49.5899580  58.3721990  13.0183580  48.3959900
  71.9089120  18.1612630  53.5389940  72.4048240  17.9283500  54.3238820
  71.7105190  17.3224470  53.1227580  57.7889660  12.5426350  59.1740980
  58.4365850  11.9923730  58.7336140  58.2091500  12.7969500  59.9956790
  73.3376280  16.7973580  56.0727620  73.2275560  16.6429620  57.0109890
  74.0983870  16.2694520  55.8303030  71.6842000  12.7367710  62.5310620
  72.3214220  13.3501850  62.8969810  71.8316890  12.7728370  61.5859850
  74.2266550  14.6281500  49.3133760  75.1515860  14.4962680  49.1052050
  74.2042340  14.7074320  50.2670210  74.3005040  15.3992160  51.9390470
  73.5056540  15.3337280  52.4683380  74.5048320  16.3342800  51.9275820
  71.2423460  29.4383710  55.9328860  71.8382530  29.1168280  55.2563280
  71.5001610  28.9655530  56.7242130  57.5421660  12.6982020  61.9166300
  57.1936480  13.1545840  62.6824480  57.2109360  11.8039150  61.9988730
  59.1486030  25.8701620  66.0819490  59.1055660  25.4994530  66.9633950
  59.2797040  26.8079190  66.2221310  62.8492060  27.4261210  61.6829210
  62.6083420  27.6935770  60.7959730  63.7894700  27.5966940  61.7380070
  65.0546480  13.8893900  65.4385720  64.9935370  14.4815730  66.1881130
  65.9946860  13.7819860  65.2935980  67.6921040  13.5463960  65.0778010
  68.3061450  13.8643250  64.4159090  68.2370600  13.0612550  65.6973870
  74.1096220  29.4455590  62.4839850  73.6154500  29.8424460  61.7666980
  73.5009510  28.8204800  62.8777130  58.2142300  12.2258220  65.1917070
  58.7625290  12.0446270  64.4283180  58.2797610  11.4352330  65.7273380
  58.9874060  28.8163870  63.2017270  58.3934380  28.6848570  63.9407310
  58.9797900  27.9802010  62.7359370  68.4329080  12.1096100  61.4047300
  67.5588920  12.4431210  61.2020230  68.3239830  11.6369280  62.2299170
  69.3401060  14.3166970  62.7889020  69.0114420  13.5018730  62.4090750
  70.2883360  14.2736780  62.6654710  71.7935670  30.0879010  59.7626590
  71.3338640  30.8394820  59.3884610  71.1648130  29.3685480  59.7041390
  58.6186290  26.1822250  62.1525310  57.8920350  25.5627540  62.0851260
  58.6795440  26.5762860  61.2823390  62.2231390  28.3967250  58.9374720
  62.7396410  27.7854610  58.4122980  62.8728770  28.8996030  59.4285730
  64.9626890  29.2875740  59.7643700  65.2504700  29.0330040  58.8876710
  65.4750110  28.7353100  60.3549270  66.1803900  13.0265940  60.3440210
  65.3975690  13.5011440  60.6236970  65.8866830  12.1220770  60.2353390
  70.7324970  13.7289040  58.3889300  71.1733060  13.6734140  57.5410900
  70.4632560  14.6447050  58.4599480  72.5963540  13.3604280  56.3998120
  72.5351940  12.4165500  56.2529140  73.3755570  13.4684370  56.9451580
  56.9016290  29.4996640  55.3622070  56.7338330  28.8667320  56.0603960
  56.0350800  29.7056040  55.0116260  57.5244310  13.3313420  52.8653930
  58.2823670  13.4442300  52.2917960  57.0621480  14.1682620  52.8197360
  64.0658120  15.4452690  55.8556240  63.2532630  15.0709580  55.5152120
  64.5699760  14.6897770  56.1577430  68.5683100  12.1095140  57.0939310
  69.1712470  12.6815350  57.5687830  67.8276090  12.6734580  56.8713210
  71.7117700  12.5116700  52.3679590  71.9068330  13.4100150  52.6347020
  70.9247570  12.2803780  52.8612540  58.5078990  28.1929870  52.8072210
  57.9826610  28.5737900  52.1034170  58.4323570  28.8180640  53.5281920
  59.8969460  13.8577470  51.4055900  60.4262220  13.0707270  51.2763850
  60.5297780  14.5368660  51.6391430  62.0907300  13.5952610  54.4601290
  61.4610040  12.8939920  54.6271420  61.5512440  14.3556740  54.2434450
  65.0299250  30.2091840  67.1311900  65.9566560  29.9736110  67.1747860
  65.0149680  31.0363840  66.6497930  73.2644310  29.7517410  54.1286150
  73.4396500  29.0655150  53.4847070  72.5665880  30.2764460  53.7362820
  62.2162860  12.8736590  66.8953780  61.9347130  13.3770190  66.1314600
  62.5982560  12.0758340  66.5295910  61.1071960  30.1412250  51.6821460
  61.8390780  29.8571530  51.1345350  61.3665630  29.9025530  52.5720840
  60.2686750  26.2576980  51.6867790  59.6395630  26.7262080  52.2353620
  60.3834580  25.4126200  52.1213980  68.8178320  12.2890170  67.4734250
  68.7043770  12.6084780  68.3685770  69.6348060  12.6902680  67.1771530
  71.5976810  29.4361700  66.9552940  72.3902130  28.9410930  66.7478900
  71.8909960  30.1151840  67.5628550  67.7236470  20.3082640  37.8368990
  67.6430520  19.3937250  37.5660700  67.3100890  20.8049710  37.1308700
  65.8554510  22.0861660  39.7178260  65.0796610  21.6062100  40.0076830
  66.5067440  21.4067310  39.5434420  59.8720340  22.3981470  40.5954020
  59.0405220  22.1430180  40.9950530  60.4801320  22.4692240  41.3311940
  69.8761940  26.4921850  38.4977390  69.4143470  25.7209090  38.8264560
  70.6887490  26.5187920  39.0029840  59.8521600  26.4321560  40.7912040
  60.1549640  25.5419300  40.6122260  60.5965190  26.9891780  40.5634290
  58.2812290  17.3583360  34.3796410  57.3928990  17.6999330  34.2776290
  58.5653480  17.1583680  33.4877240  56.2445300  19.9589010  40.2636110
  56.8161410  19.1911210  40.2639750  56.2446840  20.2577770  39.3542720
  66.1025250  28.7779860  38.1181380  65.4836690  29.2337360  37.5475820
  66.9577030  28.9331320  37.7171080  65.2963500  24.7618850  39.7248420
  65.2271780  23.8208790  39.5637550  66.0583360  24.8520260  40.2970990
  57.4870170  15.3673370  42.0505040  57.3073010  14.4699120  42.3307800
  57.0850250  15.9145240  42.7251990  66.3268670  17.5689230  39.9517350
  66.7033490  16.6961110  39.8391020  66.2288180  17.9047930  39.0607790
  60.4573680  15.9414860  35.4134790  60.5640430  16.8418590  35.7203550
  59.5466040  15.8932830  35.1229440  70.1092790  15.0639670  36.8845690
  70.9302410  14.5736240  36.9271170  70.1426870  15.6537330  37.6377530
  58.1056840  17.8633870  40.6587380  58.7866950  18.1272240  41.2774780
  57.7904890  17.0234740  40.9925390  62.2981410  18.9101230  39.7459970
  62.8059630  19.4082200  40.3864990  62.8294650  18.1336430  39.5699330
  74.3992340  17.0806420  43.4489320  73.6944510  17.4688130  42.9304430
  74.6650260  17.7756710  44.0510250  60.5817510  13.5499790  44.0123390
  60.5835950  14.0672180  43.2069290  59.7521820  13.0729970  43.9893320
  66.9688600  23.6619100  35.5113290  66.3505870  24.1268550  34.9476010
  67.4811850  24.3546580  35.9282800  61.8320360  23.1894970  42.1896890
  61.4989740  23.8163890  42.8317960  62.0087040  23.7156850  41.4098560
  70.3454270  17.0040050  39.6573230  69.6409840  17.2924940  40.2376340
  70.7066430  17.8140160  39.2972790  60.2632840  15.2609750  42.0193840
  60.6049650  16.1051800  41.7247710  59.3248650  15.4093490  42.1359180
  61.0439460  25.1575770  44.0046070  61.6613460  25.8326850  43.7230520
  60.1832580  25.5663750  43.9133570  56.3371800  24.3475630  32.8852920
  55.9599780  24.8362730  32.1537820  56.5944870  25.0200910  33.5159450
  71.9617050  26.6215180  41.9200710  71.2780570  27.2914290  41.9117380
  72.5011340  26.8195830  41.1545570  73.4141190  16.4494840  40.0482440
  72.4666100  16.4833820  40.1797870  73.7391180  17.2633790  40.4331800
  63.9460730  12.7492020  38.3438430  64.2535710  12.1938910  37.6273930
  63.0161430  12.8836480  38.1611420  69.4975790  28.4659310  40.6345890
  69.5102950  28.0621600  39.7668150  68.9451010  29.2406600  40.5307320
  70.7921210  25.1875530  35.7236060  70.6817540  24.2449860  35.8485480
  70.7889460  25.5491170  36.6098820  68.8961230  23.3689150  41.9628500
  69.3130020  23.1549260  41.1281960  69.6201050  23.6261940  42.5337120
  66.3341490  20.8140850  35.0798550  65.4070770  20.7478230  35.3087020
  66.4866310  21.7520980  34.9653790  66.3210570  17.0857850  32.0765710
  65.3814240  17.2471810  32.1618170  66.6393830  17.8043530  31.5301700
  72.8423330  21.7676370  42.0544740  72.0141960  21.8369460  41.5794870
  73.4373810  22.3530680  41.5860570  70.3638780  22.3761150  35.5833800
  69.7451200  22.0380700  34.9360100  70.3463230  21.7320910  36.2912990
  69.8065340  18.5545690  42.9999610  69.3936520  19.3799400  43.2539600
  69.0741290  17.9690730  42.8075970  61.9398130  21.3405590  37.8618280
  61.5355130  20.6282840  37.3664180  62.0261250  20.9958830  38.7506320
  62.4079830  25.0273150  40.0257490  62.1108120  24.4218620  39.3465270
  63.3579650  25.0650460  39.9146850  60.6526750  18.1148800  41.6417320
  61.2041340  18.2244140  40.8670570  61.1670260  18.4886400  42.3572550
  70.4965440  28.6005020  43.6880590  70.0196000  29.4077210  43.4953200
  69.8127230  27.9483350  43.8406800  61.4998260  24.7654840  46.6765290
  60.6026790  24.9894810  46.9238690  61.5251130  24.8889780  45.7276690
  68.5403480  21.6147960  32.5906550  68.9796760  20.7770390  32.4444370
  69.2531900  22.2477360  32.6770690  60.3269480  21.6368160  45.2522660
  60.1877250  22.5090960  45.6210060  59.4450840  21.2940970  45.1070600
  66.6498860  26.5544030  36.5587790  67.0894770  27.2968360  36.1443180
  66.5885750  26.7970600  37.4826750  62.1249830  27.5789860  47.4607810
  62.0965260  27.9832810  46.5936240  61.9614800  26.6500220  47.2979410
  72.1220620  12.8690770  30.9047590  71.8093280  12.9617600  31.8046660
  72.8833090  13.4471800  30.8545020  58.6402760  20.2350570  35.3624930
  58.5200360  20.9612660  34.7506200  58.3303650  19.4653480  34.8852840
  74.0764650  28.3616960  48.7571980  74.5524370  28.8399850  49.4361060
  74.6971810  28.2934450  48.0317480  56.2788130  23.4065710  41.1693570
  56.3568550  23.5414480  40.2249290  56.8929810  22.6981600  41.3621690
  57.5235760  25.1065900  37.5799750  57.1163840  25.2480490  36.7253350
  58.4148770  24.8226060  37.3770960  73.4797900  25.5529810  45.9171990
  73.6060960  25.3141690  44.9989170  73.5219280  24.7214350  46.3894070
  67.3414640  29.2557810  44.4866800  67.8559310  29.1665820  45.2889230
  66.4983720  29.6017510  44.7794710  69.3169040  29.5413150  33.9150800
  69.1570180  29.2516090  34.8132630  69.1515750  28.7653280  33.3796030
  61.7957420  29.3211680  35.6922420  61.6199900  28.4047220  35.4790220
  60.9413160  29.6798970  35.9320220  69.0195170  27.0500710  32.4748800
  68.3260330  27.0478000  31.8151080  69.7618030  26.6260030  32.0442970
  68.5845100  28.6763420  36.5497290  69.0402050  27.8952800  36.8635910
  68.9237620  29.3870240  37.0938470  73.3321910  17.6062270  46.8821730
  72.7166180  18.1141940  46.3537190  73.0118330  16.7060600  46.8247670
  56.3347650  24.4479880  43.7088030  56.4978690  23.9785240  42.8907400
  56.8000100  23.9403440  44.3736870  61.1066420  13.5785640  38.7448600
  60.6634570  14.3595180  38.4133120  61.6651410  13.9015530  39.4519540
  65.3936230  16.4454160  44.3483920  64.9315600  16.6537180  45.1603860
  64.9914340  15.6313510  44.0454590  70.3940740  17.6663110  45.4780580
  69.5434330  17.3668860  45.7989650  70.2342530  17.9105120  44.5664400
  67.4890450  19.1664860  47.5779370  67.8143860  18.3328610  47.2381600
  68.2770780  19.6893380  47.7257700  64.2225240  13.1996340  33.6254430
  63.5979420  13.1956210  34.3507740  64.1355360  12.3327300  33.2290400
  63.1442320  14.1232970  40.6038200  63.4414650  15.0295800  40.5230220
  63.6927880  13.6351750  39.9897770  60.8980640  18.7019210  36.4729850
  60.6721560  18.4856380  37.3776470  60.1173170  19.1347670  36.1275820
  68.1278400  18.7082580  35.0720500  67.5287290  19.4318380  34.8884120
  68.6758010  18.6459360  34.2896950  63.3379850  19.6004790  47.1390120
  63.2423450  18.6599520  46.9890520  64.1811830  19.8219860  46.7438190
  66.7343270  17.3446120  37.1023780  67.1272840  17.6618320  36.2892470
  67.0960120  16.4658000  37.2168300  58.4690390  16.0118460  45.2923900
  58.0753780  16.8593670  45.4996680  57.7808790  15.3744830  45.4832540
  65.0435440  16.0953430  48.3620640  64.3533760  15.9025630  48.9966730
  65.7867740  16.3788070  48.8944940  55.7707440  13.9346920  39.3253980
  55.4820490  14.5049780  40.0378960  56.5153200  13.4551370  39.6885210
  55.9577670  17.8767040  30.5356700  55.8752340  18.8197800  30.6771690
  55.6060730  17.7341950  29.6569050  67.3198410  19.9351870  41.1974560
  66.5879530  20.4438680  41.5464660  66.9222750  19.1181850  40.8963340
  63.7575800  16.6106070  39.6027050  63.7611860  16.1696020  38.7531590
  64.6526920  16.9323400  39.7098870  59.6078180  16.4932560  38.5621260
  59.2678230  16.9707790  39.3188310  58.8455500  16.0397680  38.2022360
  63.8195950  17.6118150  32.5933810  63.9408770  17.5704630  33.5419630
  63.4344460  18.4742300  32.4380540  67.7824320  15.3885550  40.6097500
  67.7997060  15.8394200  41.4539350  67.5339900  14.4891190  40.8230940
  62.8317450  19.9219290  31.9917110  62.2634350  19.4737540  31.3653020
  63.5406450  20.2812070  31.4582260  71.2095070  12.8017730  46.4483880
  71.5340840  12.0707390  46.9741860  71.2451580  12.4831370  45.5464870
  57.9086630  23.8231310  45.8683840  57.5241420  23.1824980  46.4666800
  58.2198820  24.5267430  46.4378570  64.0583770  20.6707850  41.3492460
  64.4253900  20.1966420  42.0953800  63.8688830  21.5449420  41.6900800
  56.9224260  15.4151540  37.4785930  56.6371180  15.0507210  38.3164550
  56.8603120  14.6832000  36.8649070  61.8483140  19.7116490  43.6676670
  61.5440210  20.5908470  43.8927030  62.8029600  19.7716280  43.7034110
  60.3764930  23.9177480  34.2643520  59.6027190  23.3775100  34.1042240
  61.1059560  23.3984090  33.9261280  71.1352910  22.9142840  40.0569910
  71.8552030  23.4098130  39.6666020  70.9334730  22.2360730  39.4123780
  66.5962850  14.3080800  34.1999300  65.7827460  13.8093970  34.1244610
  66.4024800  15.1479050  33.7835650  66.5171710  22.9851900  45.9438910
  66.4509020  22.0647570  45.6896500  65.8876850  23.0827340  46.6583550
  69.3111240  18.6800450  32.4961460  70.1990860  18.9917680  32.3212800
  69.2816330  17.8072700  32.1042040  60.4202330  23.5857860  37.9022330
  60.9381000  22.7826120  37.8479220  59.9686350  23.5237000  38.7439160
  65.3071830  24.8524140  33.1749630  65.6487530  25.5966370  32.6792950
  64.4784540  25.1655260  33.5374460  57.9046870  20.5519230  44.8148030
  57.5461810  21.2173080  45.4021370  57.6101430  19.7202780  45.1860650
  61.1059990  21.0103470  47.6987580  60.8060130  21.1560650  46.8015400
  61.8771230  20.4508760  47.6060970  66.4488440  25.8072470  45.6942710
  66.4632980  24.8753430  45.4761620  65.7413540  25.8932230  46.3332480
  71.5825510  19.9912290  31.9641320  71.4989230  20.4226510  31.1137760
  72.3019700  20.4510640  32.3968140  72.6599650  22.4479810  45.0411290
  71.9347840  23.0408590  44.8440680  73.1875110  22.4403350  44.2424660
  72.6112760  26.8454550  34.6923450  71.9688920  26.1910170  34.9667170
  72.2243420  27.2509640  33.9164120  68.1899240  24.1739980  38.5395140
  68.5423060  23.5768110  37.8796510  67.3061570  23.8484210  38.7103390
  64.2762520  24.9337670  35.9465550  64.9633650  25.4806880  36.3273140
  63.4894940  25.4778400  35.9815160  56.4154920  20.5510490  31.4382630
  57.2849770  20.8335290  31.7218550  55.9245240  21.3646360  31.3231440
  63.5789730  21.9383700  35.5590910  64.0352510  22.7488950  35.7851100
  63.2277940  21.6206840  36.3909400  65.8822340  27.4490040  42.7883210
  66.5264560  27.6549420  43.4656630  66.2451780  26.6878440  42.3354060
  59.4801510  12.2821350  36.0313430  59.3516140  12.2739250  36.9798350
  58.6563530  12.6204440  35.6804440  67.1554420  25.4522390  41.5060660
  67.7976650  24.7515550  41.6192830  67.6803770  26.2320830  41.3257550
  71.0010140  25.7371010  31.2299800  70.7747720  25.0201450  31.8224440
  70.6106340  25.4883450  30.3921550  68.9292040  26.2517290  44.7096720
  69.2648280  26.8383980  45.3874640  68.0092380  26.1210000  44.9394510
  56.7826170  29.7637870  32.0044260  57.1423810  30.3627210  31.3501530
  56.6418510  30.3097760  32.7779290  56.4795440  14.0412470  45.4920130
  55.7653960  14.2409390  46.0972740  56.8990480  13.2652040  45.8634930
  70.5826390  23.6542950  32.8913960  70.2948090  24.1155640  33.6791840
  71.3778560  23.1940720  33.1598180  56.7668030  28.0292730  46.4786660
  56.8759150  27.0887470  46.3382050  56.1148590  28.2947480  45.8300390
  64.7580620  26.3008620  47.8784780  64.4377490  25.5817860  48.4230470
  64.0838980  26.9763690  47.9520840  62.7994790  27.1469070  32.8217930
  62.7904890  27.8798760  32.2062440  61.8793150  26.9000650  32.9144890
  58.4001430  22.3683960  33.5664690  57.7929380  23.1082860  33.5759990
  58.8750780  22.4583320  32.7402890  67.9734220  16.5334780  43.2421580
  68.3415040  15.7129990  43.5701150  67.1132420  16.5936670  43.6577230
  71.3396250  15.4891720  34.0509140  70.7109410  15.5937390  33.3367370
  70.8448170  15.7088500  34.8403020  65.7854390  27.2097310  31.4843120
  65.8866370  27.0061300  30.5545100  64.8856130  26.9555590  31.6890900
  63.3080280  17.7677670  35.4667020  62.5996430  18.2364010  35.9080630
  63.5924760  17.1099680  36.1012210  64.9336210  19.1874370  43.4659550
  65.4321460  19.6620190  44.1311400  65.0759160  18.2637890  43.6729580
  67.3395710  14.4928330  36.9062810  67.2163490  14.5114460  35.9572320
  68.2880270  14.5407270  37.0261210  64.4272500  29.7283630  36.1790790
  64.6814000  29.6905020  35.2570160  63.4784980  29.6016960  36.1719040
  61.5115300  16.0762750  32.8417730  62.3605830  16.5132900  32.7757920
  61.1446570  16.3883010  33.6689790  72.1403070  15.4042330  44.3087940
  71.6376670  16.1447730  44.6481750  72.9559730  15.7926330  43.9924730
  70.4325080  20.6475510  37.7549300  69.4915220  20.6625740  37.9296990
  70.7469150  19.8611470  38.2009600  60.4106720  22.3295110  31.3153260
  61.1769990  22.2176470  31.8778690  60.4881410  21.6333080  30.6630030
  59.1053480  19.7620180  31.9986150  59.1857070  18.8147690  32.1103550
  59.9973230  20.0927060  32.1046810  72.4350660  27.8184360  39.4303560
  72.5598080  28.6415530  39.9027370  73.3016220  27.6075090  39.0827710
  59.9068190  29.9115570  39.1020690  60.6430670  29.3631030  39.3729260
  60.2909110  30.7771580  38.9626680  56.7913670  25.9789140  34.9762200
  55.8653450  26.2210280  34.9667610  57.2570100  26.8063400  34.8546950
  58.9126470  29.0961640  48.2906270  59.7139200  29.4173690  48.7041670
  58.3978290  28.7357220  49.0126180  63.0170500  29.0845880  30.9246260
  63.8099110  29.3734710  30.4728050  62.4974850  28.6538050  30.2458740
  67.7491100  25.2041510  48.2381680  67.1429260  25.2273110  47.4977430
  67.4445210  24.4724550  48.7748930  69.1791470  28.9321800  46.8491090
  70.1313220  28.8479820  46.7991330  69.0319690  29.5963510  47.5224880
  72.0700670  28.3116010  32.3483000  71.7842180  27.8981150  31.5337180
  71.8720220  29.2403720  32.2283520  56.6324280  21.5835100  47.2342320
  57.1363300  21.0042380  47.8058550  55.8931700  21.8675330  47.7718690
  63.5347900  24.3049290  30.7888610  63.4298540  23.6901640  31.5149990
  63.3672120  23.7815180  30.0051620  63.6862220  22.9906090  46.7677840
  62.9207890  23.5591090  46.6832510  63.8678180  22.6982300  45.8746070
  66.7750630  23.3669320  31.3930600  66.2260730  23.8138620  32.0373340
  67.3969890  22.8618570  31.9168270  70.8285570  24.7211420  47.3252860
  71.5695040  25.0587180  46.8220320  70.0658250  24.8903480  46.7722630
  58.6647360  19.7264690  48.1292390  58.7052700  19.4278560  49.0377620
  59.5192860  20.1272300  47.9699910  62.4425750  22.3260240  33.2895900
  62.8642170  22.1600110  34.1327290  62.5676590  21.5160470  32.7951040
  60.6053170  18.3056790  46.0966880  60.0749630  17.8147740  45.4690220
  61.2741240  18.7340990  45.5624810  64.9553390  21.3497850  30.5373000
  65.4759050  20.6346870  30.1714150  65.6021790  21.9883720  30.8373510
  69.5031230  22.7726250  45.8608070  69.9172250  22.9271330  46.7098490
  68.5682230  22.8981470  46.0233850  69.9753400  20.1122410  47.8647220
  70.5574170  19.3574730  47.7767700  70.1515170  20.6429850  47.0878700
  61.0925470  15.2719160  46.1764170  60.9982340  14.6539910  45.4515040
  60.5122860  15.9985450  45.9494080  63.8586910  13.8292400  43.2091560
  63.4104210  13.8516660  42.3637110  63.2252110  13.4311420  43.8061860
  64.2646460  22.7246730  43.8304000  64.6834570  23.5679460  43.6580240
  63.3455090  22.8618770  43.6010780  66.6010360  20.4562910  45.2141840
  66.7206570  19.8604050  45.9536680  67.4604360  20.4932600  44.7943140
  68.9398260  21.0100100  43.7904350  68.4133480  21.5342720  43.1869490
  69.2829600  21.6427490  44.4214080  61.3384650  18.3993470  30.2354060
  61.1373710  17.5360830  30.5967400  61.1676700  18.3126830  29.2975660
  62.1153880  29.0299740  44.9461730  61.5774970  29.7545800  44.6270430
  62.3687840  28.5530080  44.1559070  63.3679130  16.9984260  46.4717660
  63.9578820  16.6900110  47.1595480  62.5499370  16.5264010  46.6277560
  68.1872560  16.6150070  46.7050680  67.4988080  15.9531610  46.6400670
  68.9078580  16.1688340  47.1499140  68.8172960  13.2101700  32.7640940
  69.0975250  12.3669600  33.1200360  68.0438690  13.4424810  33.2779690
  60.1367450  15.4994090  30.2231940  60.4393350  15.5061520  29.3151090
  60.8762040  15.1491950  30.7199600  64.9716090  30.2650950  45.2048380
  64.8974790  31.1686090  45.5120750  64.0694930  29.9462850  45.1770450
  63.3552380  14.4428710  31.2088140  63.0074380  13.7652700  30.6290590
  63.5565150  13.9818220  32.0231530  65.5201420  29.4309460  32.8274740
  66.4152210  29.7694430  32.8493500  65.5519050  28.7088870  32.1999020
  59.1597580  24.8036510  31.0561740  59.5972450  25.3466180  31.7119320
  59.6445310  23.9783460  31.0658080  56.3743380  27.5925540  38.5082000
  56.7046390  26.7246600  38.2760640  56.8034380  27.7984060  39.3386960
  60.9705300  25.9234550  36.1683970  60.6700840  25.7999520  37.0687880
  60.8642790  25.0643140  35.7599700  56.8633590  28.4596130  41.2463630
  56.4264580  28.6396930  42.0787780  57.4311270  29.2170750  41.1045350
  72.4995770  27.9613130  45.5340940  71.8997760  28.0205690  44.7904860
  72.6289670  27.0218110  45.6637790  73.7397220  25.7030950  30.8710650
  72.9090180  25.7707600  31.3417880  73.9169050  26.5935070  30.5677510
  73.1953680  22.4478430  33.3744850  73.9572590  23.0175080  33.4804540
  73.2108050  21.8805630  34.1453160  56.6958020  20.9716360  37.6052510
  56.0406860  20.7028000  36.9612210  57.5335970  20.8620840  37.1554490
  74.2013650  23.3028530  38.2186780  74.5722480  22.5195850  37.8122750
  74.8415580  23.9917630  38.0404080  71.1847410  24.6865110  43.6317100
  70.3707250  25.1162270  43.8942890  71.5921610  25.2983520  43.0186150
  73.2472850  22.7412800  30.5317370  73.5221690  23.6491680  30.4036590
  73.0583590  22.6775330  31.4679360  69.6448460  15.7657650  31.8271000
  70.0633340  15.5788630  30.9867660  69.3384520  14.9136700  32.1373930
  73.1438190  20.6781790  35.5246800  72.7681790  19.9109720  35.0928090
  72.4141310  21.0604490  36.0121730  57.7333950  21.3568930  42.1455850
  58.1006990  21.2696330  43.0251870  57.1644770  20.5935480  42.0462710
  72.5337810  19.8253310  45.1586320  72.3023900  19.5966060  44.2584270
  72.7942360  20.7452860  45.1131210  57.2849950  18.2678020  46.0514270
  56.3906000  18.2344780  46.3907980  57.8247500  18.4664810  46.8165520
  70.9725880  15.0509740  47.9366020  71.8496060  15.0593140  48.3200020
  70.9846720  14.3140580  47.3258370  55.9096100  18.1815290  33.5477840
  55.0060180  18.4445490  33.3729500  56.3936720  18.4526460  32.7677800
  72.4189150  18.9039280  38.8254040  72.9426630  18.4101930  38.1944210
  73.0048570  19.0389640  39.5701610  72.5978870  18.9879150  42.3473590
  71.6481580  18.9542690  42.4618580  72.7791880  19.8979260  42.1123360
  58.4523310  17.2380830  31.4572220  59.1615010  16.8164050  30.9719500
  57.7363250  17.3056060  30.8255570  58.0997470  13.2920160  30.4974870
  58.8225600  13.8329100  30.8156090  58.3721990  13.0183580  29.6216410
  71.9089120  18.1612630  34.7646450  72.4048240  17.9283500  35.5495330
  71.7105190  17.3224470  34.3484090  57.7889660  12.5426350  40.3997490
  58.4365850  11.9923730  39.9592650  58.2091500  12.7969500  41.2213300
  73.3376280  16.7973580  37.2984130  73.2275560  16.6429620  38.2366400
  74.0983870  16.2694520  37.0559540  71.6842000  12.7367710  43.7567130
  72.3214220  13.3501850  44.1226320  71.8316890  12.7728370  42.8116360
  74.2266550  14.6281500  30.5390270  75.1515860  14.4962680  30.3308560
  74.2042340  14.7074320  31.4926720  74.3005040  15.3992160  33.1646980
  73.5056540  15.3337280  33.6939890  74.5048320  16.3342800  33.1532330
  71.2423460  29.4383710  37.1585370  71.8382530  29.1168280  36.4819790
  71.5001610  28.9655530  37.9498640  57.5421660  12.6982020  43.1422810
  57.1936480  13.1545840  43.9080990  57.2109360  11.8039150  43.2245240
  59.1486030  25.8701620  47.3076000  59.1055660  25.4994530  48.1890460
  59.2797040  26.8079190  47.4477820  62.8492060  27.4261210  42.9085720
  62.6083420  27.6935770  42.0216240  63.7894700  27.5966940  42.9636580
  65.0546480  13.8893900  46.6642230  64.9935370  14.4815730  47.4137640
  65.9946860  13.7819860  46.5192490  67.6921040  13.5463960  46.3034520
  68.3061450  13.8643250  45.6415600  68.2370600  13.0612550  46.9230380
  74.1096220  29.4455590  43.7096360  73.6154500  29.8424460  42.9923490
  73.5009510  28.8204800  44.1033640  58.2142300  12.2258220  46.4173580
  58.7625290  12.0446270  45.6539690  58.2797610  11.4352330  46.9529890
  58.9874060  28.8163870  44.4273780  58.3934380  28.6848570  45.1663820
  58.9797900  27.9802010  43.9615880  68.4329080  12.1096100  42.6303810
  67.5588920  12.4431210  42.4276740  68.3239830  11.6369280  43.4555680
  69.3401060  14.3166970  44.0145530  69.0114420  13.5018730  43.6347260
  70.2883360  14.2736780  43.8911220  71.7935670  30.0879010  40.9883100
  71.3338640  30.8394820  40.6141120  71.1648130  29.3685480  40.9297900
  58.6186290  26.1822250  43.3781820  57.8920350  25.5627540  43.3107770
  58.6795440  26.5762860  42.5079900  62.2231390  28.3967250  40.1631230
  62.7396410  27.7854610  39.6379490  62.8728770  28.8996030  40.6542240
  64.9626890  29.2875740  40.9900210  65.2504700  29.0330040  40.1133220
  65.4750110  28.7353100  41.5805780  66.1803900  13.0265940  41.5696720
  65.3975690  13.5011440  41.8493480  65.8866830  12.1220770  41.4609900
  70.7324970  13.7289040  39.6145810  71.1733060  13.6734140  38.7667410
  70.4632560  14.6447050  39.6855990  72.5963540  13.3604280  37.6254630
  72.5351940  12.4165500  37.4785650  73.3755570  13.4684370  38.1708090
  56.9016290  29.4996640  36.5878580  56.7338330  28.8667320  37.2860470
  56.0350800  29.7056040  36.2372770  57.5244310  13.3313420  34.0910440
  58.2823670  13.4442300  33.5174470  57.0621480  14.1682620  34.0453870
  64.0658120  15.4452690  37.0812750  63.2532630  15.0709580  36.7408630
  64.5699760  14.6897770  37.3833940  68.5683100  12.1095140  38.3195820
  69.1712470  12.6815350  38.7944340  67.8276090  12.6734580  38.0969720
  71.7117700  12.5116700  33.5936100  71.9068330  13.4100150  33.8603530
  70.9247570  12.2803780  34.0869050  58.5078990  28.1929870  34.0328720
  57.9826610  28.5737900  33.3290680  58.4323570  28.8180640  34.7538430
  59.8969460  13.8577470  32.6312410  60.4262220  13.0707270  32.5020360
  60.5297780  14.5368660  32.8647940  62.0907300  13.5952610  35.6857800
  61.4610040  12.8939920  35.8527930  61.5512440  14.3556740  35.4690960
  65.0299250  30.2091840  48.3568410  65.9566560  29.9736110  48.4004370
  65.0149680  31.0363840  47.8754440  73.2644310  29.7517410  35.3542660
  73.4396500  29.0655150  34.7103580  72.5665880  30.2764460  34.9619330
  62.2162860  12.8736590  48.1210290  61.9347130  13.3770190  47.3571110
  62.5982560  12.0758340  47.7552420  61.1071960  30.1412250  32.9077970
  61.8390780  29.8571530  32.3601860  61.3665630  29.9025530  33.7977350
  60.2686750  26.2576980  32.9124300  59.6395630  26.7262080  33.4610130
  60.3834580  25.4126200  33.3470490  68.8178320  12.2890170  48.6990760
  68.7043770  12.6084780  49.5942280  69.6348060  12.6902680  48.4028040
  71.5976810  29.4361700  48.1809450  72.3902130  28.9410930  47.9735410
  71.8909960  30.1151840  48.7885060  67.7236470  20.3082640  19.0625500
  67.6430520  19.3937250  18.7917210  67.3100890  20.8049710  18.3565210
  65.8554510  22.0861660  20.9434770  65.0796610  21.6062100  21.2333340
  66.5067440  21.4067310  20.7690930  59.8720340  22.3981470  21.8210530
  59.0405220  22.1430180  22.2207040  60.4801320  22.4692240  22.5568450
  69.8761940  26.4921850  19.7233900  69.4143470  25.7209090  20.0521070
  70.6887490  26.5187920  20.2286350  59.8521600  26.4321560  22.0168550
  60.1549640  25.5419300  21.8378770  60.5965190  26.9891780  21.7890800
  58.2812290  17.3583360  15.6052920  57.3928990  17.6999330  15.5032800
  58.5653480  17.1583680  14.7133750  56.2445300  19.9589010  21.4892620
  56.8161410  19.1911210  21.4896260  56.2446840  20.2577770  20.5799230
  66.1025250  28.7779860  19.3437890  65.4836690  29.2337360  18.7732330
  66.9577030  28.9331320  18.9427590  65.2963500  24.7618850  20.9504930
  65.2271780  23.8208790  20.7894060  66.0583360  24.8520260  21.5227500
  57.4870170  15.3673370  23.2761550  57.3073010  14.4699120  23.5564310
  57.0850250  15.9145240  23.9508500  66.3268670  17.5689230  21.1773860
  66.7033490  16.6961110  21.0647530  66.2288180  17.9047930  20.2864300
  60.4573680  15.9414860  16.6391300  60.5640430  16.8418590  16.9460060
  59.5466040  15.8932830  16.3485950  70.1092790  15.0639670  18.1102200
  70.9302410  14.5736240  18.1527680  70.1426870  15.6537330  18.8634040
  58.1056840  17.8633870  21.8843890  58.7866950  18.1272240  22.5031290
  57.7904890  17.0234740  22.2181900  62.2981410  18.9101230  20.9716480
  62.8059630  19.4082200  21.6121500  62.8294650  18.1336430  20.7955840
  74.3992340  17.0806420  24.6745830  73.6944510  17.4688130  24.1560940
  74.6650260  17.7756710  25.2766760  60.5817510  13.5499790  25.2379900
  60.5835950  14.0672180  24.4325800  59.7521820  13.0729970  25.2149830
  66.9688600  23.6619100  16.7369800  66.3505870  24.1268550  16.1732520
  67.4811850  24.3546580  17.1539310  61.8320360  23.1894970  23.4153400
  61.4989740  23.8163890  24.0574470  62.0087040  23.7156850  22.6355070
  70.3454270  17.0040050  20.8829740  69.6409840  17.2924940  21.4632850
  70.7066430  17.8140160  20.5229300  60.2632840  15.2609750  23.2450350
  60.6049650  16.1051800  22.9504220  59.3248650  15.4093490  23.3615690
  61.0439460  25.1575770  25.2302580  61.6613460  25.8326850  24.9487030
  60.1832580  25.5663750  25.1390080  56.3371800  24.3475630  14.1109430
  55.9599780  24.8362730  13.3794330  56.5944870  25.0200910  14.7415960
  71.9617050  26.6215180  23.1457220  71.2780570  27.2914290  23.1373890
  72.5011340  26.8195830  22.3802080  73.4141190  16.4494840  21.2738950
  72.4666100  16.4833820  21.4054380  73.7391180  17.2633790  21.6588310
  63.9460730  12.7492020  19.5694940  64.2535710  12.1938910  18.8530440
  63.0161430  12.8836480  19.3867930  69.4975790  28.4659310  21.8602400
  69.5102950  28.0621600  20.9924660  68.9451010  29.2406600  21.7563830
  70.7921210  25.1875530  16.9492570  70.6817540  24.2449860  17.0741990
  70.7889460  25.5491170  17.8355330  68.8961230  23.3689150  23.1885010
  69.3130020  23.1549260  22.3538470  69.6201050  23.6261940  23.7593630
  66.3341490  20.8140850  16.3055060  65.4070770  20.7478230  16.5343530
  66.4866310  21.7520980  16.1910300  66.3210570  17.0857850  13.3022220
  65.3814240  17.2471810  13.3874680  66.6393830  17.8043530  12.7558210
  72.8423330  21.7676370  23.2801250  72.0141960  21.8369460  22.8051380
  73.4373810  22.3530680  22.8117080  70.3638780  22.3761150  16.8090310
  69.7451200  22.0380700  16.1616610  70.3463230  21.7320910  17.5169500
  69.8065340  18.5545690  24.2256120  69.3936520  19.3799400  24.4796110
  69.0741290  17.9690730  24.0332480  61.9398130  21.3405590  19.0874790
  61.5355130  20.6282840  18.5920690  62.0261250  20.9958830  19.9762830
  62.4079830  25.0273150  21.2514000  62.1108120  24.4218620  20.5721780
  63.3579650  25.0650460  21.1403360  60.6526750  18.1148800  22.8673830
  61.2041340  18.2244140  22.0927080  61.1670260  18.4886400  23.5829060
  70.4965440  28.6005020  24.9137100  70.0196000  29.4077210  24.7209710
  69.8127230  27.9483350  25.0663310  61.4998260  24.7654840  27.9021800
  60.6026790  24.9894810  28.1495200  61.5251130  24.8889780  26.9533200
  68.5403480  21.6147960  13.8163060  68.9796760  20.7770390  13.6700880
  69.2531900  22.2477360  13.9027200  60.3269480  21.6368160  26.4779170
  60.1877250  22.5090960  26.8466570  59.4450840  21.2940970  26.3327110
  66.6498860  26.5544030  17.7844300  67.0894770  27.2968360  17.3699690
  66.5885750  26.7970600  18.7083260  62.1249830  27.5789860  28.6864320
  62.0965260  27.9832810  27.8192750  61.9614800  26.6500220  28.5235920
  72.1220620  12.8690770  12.1304100  71.8093280  12.9617600  13.0303170
  72.8833090  13.4471800  12.0801530  58.6402760  20.2350570  16.5881440
  58.5200360  20.9612660  15.9762710  58.3303650  19.4653480  16.1109350
  74.0764650  28.3616960  29.9828490  74.5524370  28.8399850  30.6617570
  74.6971810  28.2934450  29.2573990  56.2788130  23.4065710  22.3950080
  56.3568550  23.5414480  21.4505800  56.8929810  22.6981600  22.5878200
  57.5235760  25.1065900  18.8056260  57.1163840  25.2480490  17.9509860
  58.4148770  24.8226060  18.6027470  73.4797900  25.5529810  27.1428500
  73.6060960  25.3141690  26.2245680  73.5219280  24.7214350  27.6150580
  67.3414640  29.2557810  25.7123310  67.8559310  29.1665820  26.5145740
  66.4983720  29.6017510  26.0051220  69.3169040  29.5413150  15.1407310
  69.1570180  29.2516090  16.0389140  69.1515750  28.7653280  14.6052540
  61.7957420  29.3211680  16.9178930  61.6199900  28.4047220  16.7046730
  60.9413160  29.6798970  17.1576730  69.0195170  27.0500710  13.7005310
  68.3260330  27.0478000  13.0407590  69.7618030  26.6260030  13.2699480
  68.5845100  28.6763420  17.7753800  69.0402050  27.8952800  18.0892420
  68.9237620  29.3870240  18.3194980  73.3321910  17.6062270  28.1078240
  72.7166180  18.1141940  27.5793700  73.0118330  16.7060600  28.0504180
  56.3347650  24.4479880  24.9344540  56.4978690  23.9785240  24.1163910
  56.8000100  23.9403440  25.5993380  61.1066420  13.5785640  19.9705110
  60.6634570  14.3595180  19.6389630  61.6651410  13.9015530  20.6776050
  65.3936230  16.4454160  25.5740430  64.9315600  16.6537180  26.3860370
  64.9914340  15.6313510  25.2711100  70.3940740  17.6663110  26.7037090
  69.5434330  17.3668860  27.0246160  70.2342530  17.9105120  25.7920910
  67.4890450  19.1664860  28.8035880  67.8143860  18.3328610  28.4638110
  68.2770780  19.6893380  28.9514210  64.2225240  13.1996340  14.8510940
  63.5979420  13.1956210  15.5764250  64.1355360  12.3327300  14.4546910
  63.1442320  14.1232970  21.8294710  63.4414650  15.0295800  21.7486730
  63.6927880  13.6351750  21.2154280  60.8980640  18.7019210  17.6986360
  60.6721560  18.4856380  18.6032980  60.1173170  19.1347670  17.3532330
  68.1278400  18.7082580  16.2977010  67.5287290  19.4318380  16.1140630
  68.6758010  18.6459360  15.5153460  63.3379850  19.6004790  28.3646630
  63.2423450  18.6599520  28.2147030  64.1811830  19.8219860  27.9694700
  66.7343270  17.3446120  18.3280290  67.1272840  17.6618320  17.5148980
  67.0960120  16.4658000  18.4424810  58.4690390  16.0118460  26.5180410
  58.0753780  16.8593670  26.7253190  57.7808790  15.3744830  26.7089050
  65.0435440  16.0953430  29.5877150  64.3533760  15.9025630  30.2223240
  65.7867740  16.3788070  30.1201450  55.7707440  13.9346920  20.5510490
  55.4820490  14.5049780  21.2635470  56.5153200  13.4551370  20.9141720
  55.9577670  17.8767040  11.7613210  55.8752340  18.8197800  11.9028200
  55.6060730  17.7341950  10.8825560  67.3198410  19.9351870  22.4231070
  66.5879530  20.4438680  22.7721170  66.9222750  19.1181850  22.1219850
  63.7575800  16.6106070  20.8283560  63.7611860  16.1696020  19.9788100
  64.6526920  16.9323400  20.9355380  59.6078180  16.4932560  19.7877770
  59.2678230  16.9707790  20.5444820  58.8455500  16.0397680  19.4278870
  63.8195950  17.6118150  13.8190320  63.9408770  17.5704630  14.7676140
  63.4344460  18.4742300  13.6637050  67.7824320  15.3885550  21.8354010
  67.7997060  15.8394200  22.6795860  67.5339900  14.4891190  22.0487450
  62.8317450  19.9219290  13.2173620  62.2634350  19.4737540  12.5909530
  63.5406450  20.2812070  12.6838770  71.2095070  12.8017730  27.6740390
  71.5340840  12.0707390  28.1998370  71.2451580  12.4831370  26.7721380
  57.9086630  23.8231310  27.0940350  57.5241420  23.1824980  27.6923310
  58.2198820  24.5267430  27.6635080  64.0583770  20.6707850  22.5748970
  64.4253900  20.1966420  23.3210310  63.8688830  21.5449420  22.9157310
  56.9224260  15.4151540  18.7042440  56.6371180  15.0507210  19.5421060
  56.8603120  14.6832000  18.0905580  61.8483140  19.7116490  24.8933180
  61.5440210  20.5908470  25.1183540  62.8029600  19.7716280  24.9290620
  60.3764930  23.9177480  15.4900030  59.6027190  23.3775100  15.3298750
  61.1059560  23.3984090  15.1517790  71.1352910  22.9142840  21.2826420
  71.8552030  23.4098130  20.8922530  70.9334730  22.2360730  20.6380290
  66.5962850  14.3080800  15.4255810  65.7827460  13.8093970  15.3501120
  66.4024800  15.1479050  15.0092160  66.5171710  22.9851900  27.1695420
  66.4509020  22.0647570  26.9153010  65.8876850  23.0827340  27.8840060
  69.3111240  18.6800450  13.7217970  70.1990860  18.9917680  13.5469310
  69.2816330  17.8072700  13.3298550  60.4202330  23.5857860  19.1278840
  60.9381000  22.7826120  19.0735730  59.9686350  23.5237000  19.9695670
  65.3071830  24.8524140  14.4006140  65.6487530  25.5966370  13.9049460
  64.4784540  25.1655260  14.7630970  57.9046870  20.5519230  26.0404540
  57.5461810  21.2173080  26.6277880  57.6101430  19.7202780  26.4117160
  61.1059990  21.0103470  28.9244090  60.8060130  21.1560650  28.0271910
  61.8771230  20.4508760  28.8317480  66.4488440  25.8072470  26.9199220
  66.4632980  24.8753430  26.7018130  65.7413540  25.8932230  27.5588990
  71.5825510  19.9912290  13.1897830  71.4989230  20.4226510  12.3394270
  72.3019700  20.4510640  13.6224650  72.6599650  22.4479810  26.2667800
  71.9347840  23.0408590  26.0697190  73.1875110  22.4403350  25.4681170
  72.6112760  26.8454550  15.9179960  71.9688920  26.1910170  16.1923680
  72.2243420  27.2509640  15.1420630  68.1899240  24.1739980  19.7651650
  68.5423060  23.5768110  19.1053020  67.3061570  23.8484210  19.9359900
  64.2762520  24.9337670  17.1722060  64.9633650  25.4806880  17.5529650
  63.4894940  25.4778400  17.2071670  56.4154920  20.5510490  12.6639140
  57.2849770  20.8335290  12.9475060  55.9245240  21.3646360  12.5487950
  63.5789730  21.9383700  16.7847420  64.0352510  22.7488950  17.0107610
  63.2277940  21.6206840  17.6165910  65.8822340  27.4490040  24.0139720
  66.5264560  27.6549420  24.6913140  66.2451780  26.6878440  23.5610570
  59.4801510  12.2821350  17.2569940  59.3516140  12.2739250  18.2054860
  58.6563530  12.6204440  16.9060950  67.1554420  25.4522390  22.7317170
  67.7976650  24.7515550  22.8449340  67.6803770  26.2320830  22.5514060
  71.0010140  25.7371010  12.4556310  70.7747720  25.0201450  13.0480950
  70.6106340  25.4883450  11.6178060  68.9292040  26.2517290  25.9353230
  69.2648280  26.8383980  26.6131150  68.0092380  26.1210000  26.1651020
  56.7826170  29.7637870  13.2300770  57.1423810  30.3627210  12.5758040
  56.6418510  30.3097760  14.0035800  56.4795440  14.0412470  26.7176640
  55.7653960  14.2409390  27.3229250  56.8990480  13.2652040  27.0891440
  70.5826390  23.6542950  14.1170470  70.2948090  24.1155640  14.9048350
  71.3778560  23.1940720  14.3854690  56.7668030  28.0292730  27.7043170
  56.8759150  27.0887470  27.5638560  56.1148590  28.2947480  27.0556900
  64.7580620  26.3008620  29.1041290  64.4377490  25.5817860  29.6486980
  64.0838980  26.9763690  29.1777350  62.7994790  27.1469070  14.0474440
  62.7904890  27.8798760  13.4318950  61.8793150  26.9000650  14.1401400
  58.4001430  22.3683960  14.7921200  57.7929380  23.1082860  14.8016500
  58.8750780  22.4583320  13.9659400  67.9734220  16.5334780  24.4678090
  68.3415040  15.7129990  24.7957660  67.1132420  16.5936670  24.8833740
  71.3396250  15.4891720  15.2765650  70.7109410  15.5937390  14.5623880
  70.8448170  15.7088500  16.0659530  65.7854390  27.2097310  12.7099630
  65.8866370  27.0061300  11.7801610  64.8856130  26.9555590  12.9147410
  63.3080280  17.7677670  16.6923530  62.5996430  18.2364010  17.1337140
  63.5924760  17.1099680  17.3268720  64.9336210  19.1874370  24.6916060
  65.4321460  19.6620190  25.3567910  65.0759160  18.2637890  24.8986090
  67.3395710  14.4928330  18.1319320  67.2163490  14.5114460  17.1828830
  68.2880270  14.5407270  18.2517720  64.4272500  29.7283630  17.4047300
  64.6814000  29.6905020  16.4826670  63.4784980  29.6016960  17.3975550
  61.5115300  16.0762750  14.0674240  62.3605830  16.5132900  14.0014430
  61.1446570  16.3883010  14.8946300  72.1403070  15.4042330  25.5344450
  71.6376670  16.1447730  25.8738260  72.9559730  15.7926330  25.2181240
  70.4325080  20.6475510  18.9805810  69.4915220  20.6625740  19.1553500
  70.7469150  19.8611470  19.4266110  60.4106720  22.3295110  12.5409770
  61.1769990  22.2176470  13.1035200  60.4881410  21.6333080  11.8886540
  59.1053480  19.7620180  13.2242660  59.1857070  18.8147690  13.3360060
  59.9973230  20.0927060  13.3303320  72.4350660  27.8184360  20.6560070
  72.5598080  28.6415530  21.1283880  73.3016220  27.6075090  20.3084220
  59.9068190  29.9115570  20.3277200  60.6430670  29.3631030  20.5985770
  60.2909110  30.7771580  20.1883190  56.7913670  25.9789140  16.2018710
  55.8653450  26.2210280  16.1924120  57.2570100  26.8063400  16.0803460
  58.9126470  29.0961640  29.5162780  59.7139200  29.4173690  29.9298180
  58.3978290  28.7357220  30.2382690  63.0170500  29.0845880  12.1502770
  63.8099110  29.3734710  11.6984560  62.4974850  28.6538050  11.4715250
  67.7491100  25.2041510  29.4638190  67.1429260  25.2273110  28.7233940
  67.4445210  24.4724550  30.0005440  69.1791470  28.9321800  28.0747600
  70.1313220  28.8479820  28.0247840  69.0319690  29.5963510  28.7481390
  72.0700670  28.3116010  13.5739510  71.7842180  27.8981150  12.7593690
  71.8720220  29.2403720  13.4540030  56.6324280  21.5835100  28.4598830
  57.1363300  21.0042380  29.0315060  55.8931700  21.8675330  28.9975200
  63.5347900  24.3049290  12.0145120  63.4298540  23.6901640  12.7406500
  63.3672120  23.7815180  11.2308130  63.6862220  22.9906090  27.9934350
  62.9207890  23.5591090  27.9089020  63.8678180  22.6982300  27.1002580
  66.7750630  23.3669320  12.6187110  66.2260730  23.8138620  13.2629850
  67.3969890  22.8618570  13.1424780  70.8285570  24.7211420  28.5509370
  71.5695040  25.0587180  28.0476830  70.0658250  24.8903480  27.9979140
  58.6647360  19.7264690  29.3548900  58.7052700  19.4278560  30.2634130
  59.5192860  20.1272300  29.1956420  62.4425750  22.3260240  14.5152410
  62.8642170  22.1600110  15.3583800  62.5676590  21.5160470  14.0207550
  60.6053170  18.3056790  27.3223390  60.0749630  17.8147740  26.6946730
  61.2741240  18.7340990  26.7881320  64.9553390  21.3497850  11.7629510
  65.4759050  20.6346870  11.3970660  65.6021790  21.9883720  12.0630020
  69.5031230  22.7726250  27.0864580  69.9172250  22.9271330  27.9355000
  68.5682230  22.8981470  27.2490360  69.9753400  20.1122410  29.0903730
  70.5574170  19.3574730  29.0024210  70.1515170  20.6429850  28.3135210
  61.0925470  15.2719160  27.4020680  60.9982340  14.6539910  26.6771550
  60.5122860  15.9985450  27.1750590  63.8586910  13.8292400  24.4348070
  63.4104210  13.8516660  23.5893620  63.2252110  13.4311420  25.0318370
  64.2646460  22.7246730  25.0560510  64.6834570  23.5679460  24.8836750
  63.3455090  22.8618770  24.8267290  66.6010360  20.4562910  26.4398350
  66.7206570  19.8604050  27.1793190  67.4604360  20.4932600  26.0199650
  68.9398260  21.0100100  25.0160860  68.4133480  21.5342720  24.4126000
  69.2829600  21.6427490  25.6470590  61.3384650  18.3993470  11.4610570
  61.1373710  17.5360830  11.8223910  61.1676700  18.3126830  10.5232170
  62.1153880  29.0299740  26.1718240  61.5774970  29.7545800  25.8526940
  62.3687840  28.5530080  25.3815580  63.3679130  16.9984260  27.6974170
  63.9578820  16.6900110  28.3851990  62.5499370  16.5264010  27.8534070
  68.1872560  16.6150070  27.9307190  67.4988080  15.9531610  27.8657180
  68.9078580  16.1688340  28.3755650  68.8172960  13.2101700  13.9897450
  69.0975250  12.3669600  14.3456870  68.0438690  13.4424810  14.5036200
  60.1367450  15.4994090  11.4488450  60.4393350  15.5061520  10.5407600
  60.8762040  15.1491950  11.9456110  64.9716090  30.2650950  26.4304890
  64.8974790  31.1686090  26.7377260  64.0694930  29.9462850  26.4026960
  63.3552380  14.4428710  12.4344650  63.0074380  13.7652700  11.8547100
  63.5565150  13.9818220  13.2488040  65.5201420  29.4309460  14.0531250
  66.4152210  29.7694430  14.0750010  65.5519050  28.7088870  13.4255530
  59.1597580  24.8036510  12.2818250  59.5972450  25.3466180  12.9375830
  59.6445310  23.9783460  12.2914590  56.3743380  27.5925540  19.7338510
  56.7046390  26.7246600  19.5017150  56.8034380  27.7984060  20.5643470
  60.9705300  25.9234550  17.3940480  60.6700840  25.7999520  18.2944390
  60.8642790  25.0643140  16.9856210  56.8633590  28.4596130  22.4720140
  56.4264580  28.6396930  23.3044290  57.4311270  29.2170750  22.3301860
  72.4995770  27.9613130  26.7597450  71.8997760  28.0205690  26.0161370
  72.6289670  27.0218110  26.8894300  73.7397220  25.7030950  12.0967160
  72.9090180  25.7707600  12.5674390  73.9169050  26.5935070  11.7934020
  73.1953680  22.4478430  14.6001360  73.9572590  23.0175080  14.7061050
  73.2108050  21.8805630  15.3709670  56.6958020  20.9716360  18.8309020
  56.0406860  20.7028000  18.1868720  57.5335970  20.8620840  18.3811000
  74.2013650  23.3028530  19.4443290  74.5722480  22.5195850  19.0379260
  74.8415580  23.9917630  19.2660590  71.1847410  24.6865110  24.8573610
  70.3707250  25.1162270  25.1199400  71.5921610  25.2983520  24.2442660
  73.2472850  22.7412800  11.7573880  73.5221690  23.6491680  11.6293100
  73.0583590  22.6775330  12.6935870  69.6448460  15.7657650  13.0527510
  70.0633340  15.5788630  12.2124170  69.3384520  14.9136700  13.3630440
  73.1438190  20.6781790  16.7503310  72.7681790  19.9109720  16.3184600
  72.4141310  21.0604490  17.2378240  57.7333950  21.3568930  23.3712360
  58.1006990  21.2696330  24.2508380  57.1644770  20.5935480  23.2719220
  72.5337810  19.8253310  26.3842830  72.3023900  19.5966060  25.4840780
  72.7942360  20.7452860  26.3387720  57.2849950  18.2678020  27.2770780
  56.3906000  18.2344780  27.6164490  57.8247500  18.4664810  28.0422030
  70.9725880  15.0509740  29.1622530  71.8496060  15.0593140  29.5456530
  70.9846720  14.3140580  28.5514880  55.9096100  18.1815290  14.7734350
  55.0060180  18.4445490  14.5986010  56.3936720  18.4526460  13.9934310
  72.4189150  18.9039280  20.0510550  72.9426630  18.4101930  19.4200720
  73.0048570  19.0389640  20.7958120  72.5978870  18.9879150  23.5730100
  71.6481580  18.9542690  23.6875090  72.7791880  19.8979260  23.3379870
  58.4523310  17.2380830  12.6828730  59.1615010  16.8164050  12.1976010
  57.7363250  17.3056060  12.0512080  58.0997470  13.2920160  11.7231380
  58.8225600  13.8329100  12.0412600  58.3721990  13.0183580  10.8472920
  71.9089120  18.1612630  15.9902960  72.4048240  17.9283500  16.7751840
  71.7105190  17.3224470  15.5740600  57.7889660  12.5426350  21.6254000
  58.4365850  11.9923730  21.1849160  58.2091500  12.7969500  22.4469810
  73.3376280  16.7973580  18.5240640  73.2275560  16.6429620  19.4622910
  74.0983870  16.2694520  18.2816050  71.6842000  12.7367710  24.9823640
  72.3214220  13.3501850  25.3482830  71.8316890  12.7728370  24.0372870
  74.2266550  14.6281500  11.7646780  75.1515860  14.4962680  11.5565070
  74.2042340  14.7074320  12.7183230  74.3005040  15.3992160  14.3903490
  73.5056540  15.3337280  14.9196400  74.5048320  16.3342800  14.3788840
  71.2423460  29.4383710  18.3841880  71.8382530  29.1168280  17.7076300
  71.5001610  28.9655530  19.1755150  57.5421660  12.6982020  24.3679320
  57.1936480  13.1545840  25.1337500  57.2109360  11.8039150  24.4501750
  59.1486030  25.8701620  28.5332510  59.1055660  25.4994530  29.4146970
  59.2797040  26.8079190  28.6734330  62.8492060  27.4261210  24.1342230
  62.6083420  27.6935770  23.2472750  63.7894700  27.5966940  24.1893090
  65.0546480  13.8893900  27.8898740  64.9935370  14.4815730  28.6394150
  65.9946860  13.7819860  27.7449000  67.6921040  13.5463960  27.5291030
  68.3061450  13.8643250  26.8672110  68.2370600  13.0612550  28.1486890
  74.1096220  29.4455590  24.9352870  73.6154500  29.8424460  24.2180000
  73.5009510  28.8204800  25.3290150  58.2142300  12.2258220  27.6430090
  58.7625290  12.0446270  26.8796200  58.2797610  11.4352330  28.1786400
  58.9874060  28.8163870  25.6530290  58.3934380  28.6848570  26.3920330
  58.9797900  27.9802010  25.1872390  68.4329080  12.1096100  23.8560320
  67.5588920  12.4431210  23.6533250  68.3239830  11.6369280  24.6812190
  69.3401060  14.3166970  25.2402040  69.0114420  13.5018730  24.8603770
  70.2883360  14.2736780  25.1167730  71.7935670  30.0879010  22.2139610
  71.3338640  30.8394820  21.8397630  71.1648130  29.3685480  22.1554410
  58.6186290  26.1822250  24.6038330  57.8920350  25.5627540  24.5364280
  58.6795440  26.5762860  23.7336410  62.2231390  28.3967250  21.3887740
  62.7396410  27.7854610  20.8636000  62.8728770  28.8996030  21.8798750
  64.9626890  29.2875740  22.2156720  65.2504700  29.0330040  21.3389730
  65.4750110  28.7353100  22.8062290  66.1803900  13.0265940  22.7953230
  65.3975690  13.5011440  23.0749990  65.8866830  12.1220770  22.6866410
  70.7324970  13.7289040  20.8402320  71.1733060  13.6734140  19.9923920
  70.4632560  14.6447050  20.9112500  72.5963540  13.3604280  18.8511140
  72.5351940  12.4165500  18.7042160  73.3755570  13.4684370  19.3964600
  56.9016290  29.4996640  17.8135090  56.7338330  28.8667320  18.5116980
  56.0350800  29.7056040  17.4629280  57.5244310  13.3313420  15.3166950
  58.2823670  13.4442300  14.7430980  57.0621480  14.1682620  15.2710380
  64.0658120  15.4452690  18.3069260  63.2532630  15.0709580  17.9665140
  64.5699760  14.6897770  18.6090450  68.5683100  12.1095140  19.5452330
  69.1712470  12.6815350  20.0200850  67.8276090  12.6734580  19.3226230
  71.7117700  12.5116700  14.8192610  71.9068330  13.4100150  15.0860040
  70.9247570  12.2803780  15.3125560  58.5078990  28.1929870  15.2585230
  57.9826610  28.5737900  14.5547190  58.4323570  28.8180640  15.9794940
  59.8969460  13.8577470  13.8568920  60.4262220  13.0707270  13.7276870
  60.5297780  14.5368660  14.0904450  62.0907300  13.5952610  16.9114310
  61.4610040  12.8939920  17.0784440  61.5512440  14.3556740  16.6947470
  65.0299250  30.2091840  29.5824920  65.9566560  29.9736110  29.6260880
  65.0149680  31.0363840  29.1010950  73.2644310  29.7517410  16.5799170
  73.4396500  29.0655150  15.9360090  72.5665880  30.2764460  16.1875840
  62.2162860  12.8736590  29.3466800  61.9347130  13.3770190  28.5827620
  62.5982560  12.0758340  28.9808930  61.1071960  30.1412250  14.1334480
  61.8390780  29.8571530  13.5858370  61.3665630  29.9025530  15.0233860
  60.2686750  26.2576980  14.1380810  59.6395630  26.7262080  14.6866640
  60.3834580  25.4126200  14.5727000  68.8178320  12.2890170  29.9247270
  68.7043770  12.6084780  30.8198790  69.6348060  12.6902680  29.6284550
  71.5976810  29.4361700  29.4065960  72.3902130  28.9410930  29.1991920
  71.8909960  30.1151840  30.0141570  65.8554510  22.0861660   2.1691280
  65.0796610  21.6062100   2.4589850  66.5067440  21.4067310   1.9947440
  59.8720340  22.3981470   3.0467040  59.0405220  22.1430180   3.4463550
  60.4801320  22.4692240   3.7824960  59.8521600  26.4321560   3.2425060
  60.1549640  25.5419300   3.0635280  60.5965190  26.9891780   3.0147310
  56.2445300  19.9589010   2.7149130  56.8161410  19.1911210   2.7152770
  56.2446840  20.2577770   1.8055740  65.2963500  24.7618850   2.1761440
  65.2271780  23.8208790   2.0150570  66.0583360  24.8520260   2.7484010
  57.4870170  15.3673370   4.5018060  57.3073010  14.4699120   4.7820820
  57.0850250  15.9145240   5.1765010  58.1056840  17.8633870   3.1100400
  58.7866950  18.1272240   3.7287800  57.7904890  17.0234740   3.4438410
  62.2981410  18.9101230   2.1972990  62.8059630  19.4082200   2.8378010
  62.8294650  18.1336430   2.0212350  74.3992340  17.0806420   5.9002340
  73.6944510  17.4688130   5.3817450  74.6650260  17.7756710   6.5023270
  60.5817510  13.5499790   6.4636410  60.5835950  14.0672180   5.6582310
  59.7521820  13.0729970   6.4406340  61.8320360  23.1894970   4.6409910
  61.4989740  23.8163890   5.2830980  62.0087040  23.7156850   3.8611580
  70.3454270  17.0040050   2.1086250  69.6409840  17.2924940   2.6889360
  70.7066430  17.8140160   1.7485810  60.2632840  15.2609750   4.4706860
  60.6049650  16.1051800   4.1760730  59.3248650  15.4093490   4.5872200
  61.0439460  25.1575770   6.4559090  61.6613460  25.8326850   6.1743540
  60.1832580  25.5663750   6.3646590  71.9617050  26.6215180   4.3713730
  71.2780570  27.2914290   4.3630400  72.5011340  26.8195830   3.6058590
  73.4141190  16.4494840   2.4995460  72.4666100  16.4833820   2.6310890
  73.7391180  17.2633790   2.8844820  69.4975790  28.4659310   3.0858910
  69.5102950  28.0621600   2.2181170  68.9451010  29.2406600   2.9820340
  68.8961230  23.3689150   4.4141520  69.3130020  23.1549260   3.5794980
  69.6201050  23.6261940   4.9850140  72.8423330  21.7676370   4.5057760
  72.0141960  21.8369460   4.0307890  73.4373810  22.3530680   4.0373590
  69.8065340  18.5545690   5.4512630  69.3936520  19.3799400   5.7052620
  69.0741290  17.9690730   5.2588990  62.4079830  25.0273150   2.4770510
  62.1108120  24.4218620   1.7978290  63.3579650  25.0650460   2.3659870
  60.6526750  18.1148800   4.0930340  61.2041340  18.2244140   3.3183590
  61.1670260  18.4886400   4.8085570  70.4965440  28.6005020   6.1393610
  70.0196000  29.4077210   5.9466220  69.8127230  27.9483350   6.2919820
  61.4998260  24.7654840   9.1278310  60.6026790  24.9894810   9.3751710
  61.5251130  24.8889780   8.1789710  60.3269480  21.6368160   7.7035680
  60.1877250  22.5090960   8.0723080  59.4450840  21.2940970   7.5583620
  62.1249830  27.5789860   9.9120830  62.0965260  27.9832810   9.0449260
  61.9614800  26.6500220   9.7492430  74.0764650  28.3616960  11.2085000
  74.5524370  28.8399850  11.8874080  74.6971810  28.2934450  10.4830500
  56.2788130  23.4065710   3.6206590  56.3568550  23.5414480   2.6762310
  56.8929810  22.6981600   3.8134710  73.4797900  25.5529810   8.3685010
  73.6060960  25.3141690   7.4502190  73.5219280  24.7214350   8.8407090
  67.3414640  29.2557810   6.9379820  67.8559310  29.1665820   7.7402250
  66.4983720  29.6017510   7.2307730  73.3321910  17.6062270   9.3334750
  72.7166180  18.1141940   8.8050210  73.0118330  16.7060600   9.2760690
  56.3347650  24.4479880   6.1601050  56.4978690  23.9785240   5.3420420
  56.8000100  23.9403440   6.8249890  65.3936230  16.4454160   6.7996940
  64.9315600  16.6537180   7.6116880  64.9914340  15.6313510   6.4967610
  70.3940740  17.6663110   7.9293600  69.5434330  17.3668860   8.2502670
  70.2342530  17.9105120   7.0177420  67.4890450  19.1664860  10.0292390
  67.8143860  18.3328610   9.6894620  68.2770780  19.6893380  10.1770720
  63.1442320  14.1232970   3.0551220  63.4414650  15.0295800   2.9743240
  63.6927880  13.6351750   2.4410790  63.3379850  19.6004790   9.5903140
  63.2423450  18.6599520   9.4403540  64.1811830  19.8219860   9.1951210
  58.4690390  16.0118460   7.7436920  58.0753780  16.8593670   7.9509700
  57.7808790  15.3744830   7.9345560  65.0435440  16.0953430  10.8133660
  64.3533760  15.9025630  11.4479750  65.7867740  16.3788070  11.3457960
  55.7707440  13.9346920   1.7767000  55.4820490  14.5049780   2.4891980
  56.5153200  13.4551370   2.1398230  67.3198410  19.9351870   3.6487580
  66.5879530  20.4438680   3.9977680  66.9222750  19.1181850   3.3476360
  67.7824320  15.3885550   3.0610520  67.7997060  15.8394200   3.9052370
  67.5339900  14.4891190   3.2743960  71.2095070  12.8017730   8.8996900
  71.5340840  12.0707390   9.4254880  71.2451580  12.4831370   7.9977890
  57.9086630  23.8231310   8.3196860  57.5241420  23.1824980   8.9179820
  58.2198820  24.5267430   8.8891590  64.0583770  20.6707850   3.8005480
  64.4253900  20.1966420   4.5466820  63.8688830  21.5449420   4.1413820
  61.8483140  19.7116490   6.1189690  61.5440210  20.5908470   6.3440050
  62.8029600  19.7716280   6.1547130  71.1352910  22.9142840   2.5082930
  71.8552030  23.4098130   2.1179040  70.9334730  22.2360730   1.8636800
  66.5171710  22.9851900   8.3951930  66.4509020  22.0647570   8.1409520
  65.8876850  23.0827340   9.1096570  57.9046870  20.5519230   7.2661050
  57.5461810  21.2173080   7.8534390  57.6101430  19.7202780   7.6373670
  61.1059990  21.0103470  10.1500600  60.8060130  21.1560650   9.2528420
  61.8771230  20.4508760  10.0573990  66.4488440  25.8072470   8.1455730
  66.4632980  24.8753430   7.9274640  65.7413540  25.8932230   8.7845500
  72.6599650  22.4479810   7.4924310  71.9347840  23.0408590   7.2953700
  73.1875110  22.4403350   6.6937680  65.8822340  27.4490040   5.2396230
  66.5264560  27.6549420   5.9169650  66.2451780  26.6878440   4.7867080
  67.1554420  25.4522390   3.9573680  67.7976650  24.7515550   4.0705850
  67.6803770  26.2320830   3.7770570  68.9292040  26.2517290   7.1609740
  69.2648280  26.8383980   7.8387660  68.0092380  26.1210000   7.3907530
  56.4795440  14.0412470   7.9433150  55.7653960  14.2409390   8.5485760
  56.8990480  13.2652040   8.3147950  56.7668030  28.0292730   8.9299680
  56.8759150  27.0887470   8.7895070  56.1148590  28.2947480   8.2813410
  64.7580620  26.3008620  10.3297800  64.4377490  25.5817860  10.8743490
  64.0838980  26.9763690  10.4033860  67.9734220  16.5334780   5.6934600
  68.3415040  15.7129990   6.0214170  67.1132420  16.5936670   6.1090250
  64.9336210  19.1874370   5.9172570  65.4321460  19.6620190   6.5824420
  65.0759160  18.2637890   6.1242600  72.1403070  15.4042330   6.7600960
  71.6376670  16.1447730   7.0994770  72.9559730  15.7926330   6.4437750
  58.9126470  29.0961640  10.7419290  59.7139200  29.4173690  11.1554690
  58.3978290  28.7357220  11.4639200  67.7491100  25.2041510  10.6894700
  67.1429260  25.2273110   9.9490450  67.4445210  24.4724550  11.2261950
  69.1791470  28.9321800   9.3004110  70.1313220  28.8479820   9.2504350
  69.0319690  29.5963510   9.9737900  56.6324280  21.5835100   9.6855340
  57.1363300  21.0042380  10.2571570  55.8931700  21.8675330  10.2231710
  63.6862220  22.9906090   9.2190860  62.9207890  23.5591090   9.1345530
  63.8678180  22.6982300   8.3259090  70.8285570  24.7211420   9.7765880
  71.5695040  25.0587180   9.2733340  70.0658250  24.8903480   9.2235650
  58.6647360  19.7264690  10.5805410  58.7052700  19.4278560  11.4890640
  59.5192860  20.1272300  10.4212930  60.6053170  18.3056790   8.5479900
  60.0749630  17.8147740   7.9203240  61.2741240  18.7340990   8.0137830
  69.5031230  22.7726250   8.3121090  69.9172250  22.9271330   9.1611510
  68.5682230  22.8981470   8.4746870  69.9753400  20.1122410  10.3160240
  70.5574170  19.3574730  10.2280720  70.1515170  20.6429850   9.5391720
  61.0925470  15.2719160   8.6277190  60.9982340  14.6539910   7.9028060
  60.5122860  15.9985450   8.4007100  63.8586910  13.8292400   5.6604580
  63.4104210  13.8516660   4.8150130  63.2252110  13.4311420   6.2574880
  64.2646460  22.7246730   6.2817020  64.6834570  23.5679460   6.1093260
  63.3455090  22.8618770   6.0523800  66.6010360  20.4562910   7.6654860
  66.7206570  19.8604050   8.4049700  67.4604360  20.4932600   7.2456160
  68.9398260  21.0100100   6.2417370  68.4133480  21.5342720   5.6382510
  69.2829600  21.6427490   6.8727100  62.1153880  29.0299740   7.3974750
  61.5774970  29.7545800   7.0783450  62.3687840  28.5530080   6.6072090
  63.3679130  16.9984260   8.9230680  63.9578820  16.6900110   9.6108500
  62.5499370  16.5264010   9.0790580  68.1872560  16.6150070   9.1563700
  67.4988080  15.9531610   9.0913690  68.9078580  16.1688340   9.6012160
  64.9716090  30.2650950   7.6561400  64.8974790  31.1686090   7.9633770
  64.0694930  29.9462850   7.6283470  56.8633590  28.4596130   3.6976650
  56.4264580  28.6396930   4.5300800  57.4311270  29.2170750   3.5558370
  72.4995770  27.9613130   7.9853960  71.8997760  28.0205690   7.2417880
  72.6289670  27.0218110   8.1150810  71.1847410  24.6865110   6.0830120
  70.3707250  25.1162270   6.3455910  71.5921610  25.2983520   5.4699170
  57.7333950  21.3568930   4.5968870  58.1006990  21.2696330   5.4764890
  57.1644770  20.5935480   4.4975730  72.5337810  19.8253310   7.6099340
  72.3023900  19.5966060   6.7097290  72.7942360  20.7452860   7.5644230
  57.2849950  18.2678020   8.5027290  56.3906000  18.2344780   8.8421000
  57.8247500  18.4664810   9.2678540  70.9725880  15.0509740  10.3879040
  71.8496060  15.0593140  10.7713040  70.9846720  14.3140580   9.7771390
  72.5978870  18.9879150   4.7986610  71.6481580  18.9542690   4.9131600
  72.7791880  19.8979260   4.5636380  57.7889660  12.5426350   2.8510510
  58.4365850  11.9923730   2.4105670  58.2091500  12.7969500   3.6726320
  71.6842000  12.7367710   6.2080150  72.3214220  13.3501850   6.5739340
  71.8316890  12.7728370   5.2629380  57.5421660  12.6982020   5.5935830
  57.1936480  13.1545840   6.3594010  57.2109360  11.8039150   5.6758260
  59.1486030  25.8701620   9.7589020  59.1055660  25.4994530  10.6403480
  59.2797040  26.8079190   9.8990840  62.8492060  27.4261210   5.3598740
  62.6083420  27.6935770   4.4729260  63.7894700  27.5966940   5.4149600
  65.0546480  13.8893900   9.1155250  64.9935370  14.4815730   9.8650660
  65.9946860  13.7819860   8.9705510  67.6921040  13.5463960   8.7547540
  68.3061450  13.8643250   8.0928620  68.2370600  13.0612550   9.3743400
  74.1096220  29.4455590   6.1609380  73.6154500  29.8424460   5.4436510
  73.5009510  28.8204800   6.5546660  58.2142300  12.2258220   8.8686600
  58.7625290  12.0446270   8.1052710  58.2797610  11.4352330   9.4042910
  58.9874060  28.8163870   6.8786800  58.3934380  28.6848570   7.6176840
  58.9797900  27.9802010   6.4128900  68.4329080  12.1096100   5.0816830
  67.5588920  12.4431210   4.8789760  68.3239830  11.6369280   5.9068700
  69.3401060  14.3166970   6.4658550  69.0114420  13.5018730   6.0860280
  70.2883360  14.2736780   6.3424240  71.7935670  30.0879010   3.4396120
  71.3338640  30.8394820   3.0654140  71.1648130  29.3685480   3.3810920
  58.6186290  26.1822250   5.8294840  57.8920350  25.5627540   5.7620790
  58.6795440  26.5762860   4.9592920  62.2231390  28.3967250   2.6144250
  62.7396410  27.7854610   2.0892510  62.8728770  28.8996030   3.1055260
  64.9626890  29.2875740   3.4413230  65.2504700  29.0330040   2.5646240
  65.4750110  28.7353100   4.0318800  66.1803900  13.0265940   4.0209740
  65.3975690  13.5011440   4.3006500  65.8866830  12.1220770   3.9122920
  65.0299250  30.2091840  10.8081430  65.9566560  29.9736110  10.8517390
  65.0149680  31.0363840  10.3267460  62.2162860  12.8736590  10.5723310
  61.9347130  13.3770190   9.8084130  62.5982560  12.0758340  10.2065440
  68.8178320  12.2890170  11.1503780  68.7043770  12.6084780  12.0455300
  69.6348060  12.6902680  10.8541060  71.5976810  29.4361700  10.6322470
  72.3902130  28.9410930  10.4248430  71.8909960  30.1151840  11.2398080
  69.8761940   7.7178360  94.8207860  69.4143470   6.9465600  95.1495030
  70.6887490   7.7444430  95.3260310  66.1025250  10.0036370  94.4411850
  65.4836690  10.4593870  93.8706290  66.9577030  10.1587830  94.0401550
  66.9688600   4.8875610  91.8343760  66.3505870   5.3525060  91.2706480
  67.4811850   5.5803090  92.2513270  56.3371800   5.5732140  89.2083390
  55.9599780   6.0619240  88.4768290  56.5944870   6.2457420  89.8389920
  70.7921210   6.4132040  92.0466530  70.6817540   5.4706370  92.1715950
  70.7889460   6.7747680  92.9329290  66.3341490   2.0397360  91.4029020
  65.4070770   1.9734740  91.6317490  66.4866310   2.9777490  91.2884260
  70.3638780   3.6017660  91.9064270  69.7451200   3.2637210  91.2590570
  70.3463230   2.9577420  92.6143460  61.9398130   2.5662100  94.1848750
  61.5355130   1.8539350  93.6894650  62.0261250   2.2215340  95.0736790
  68.5403480   2.8404470  88.9137020  68.9796760   2.0026900  88.7674840
  69.2531900   3.4733870  89.0001160  66.6498860   7.7800540  92.8818260
  67.0894770   8.5224870  92.4673650  66.5885750   8.0227110  93.8057220
  57.5235760   6.3322410  93.9030220  57.1163840   6.4737000  93.0483820
  58.4148770   6.0482570  93.7001430  69.3169040  10.7669660  90.2381270
  69.1570180  10.4772600  91.1363100  69.1515750   9.9909790  89.7026500
  61.7957420  10.5468190  92.0152890  61.6199900   9.6303730  91.8020690
  60.9413160  10.9055480  92.2550690  69.0195170   8.2757220  88.7979270
  68.3260330   8.2734510  88.1381550  69.7618030   7.8516540  88.3673440
  68.5845100   9.9019930  92.8727760  69.0402050   9.1209310  93.1866380
  68.9237620  10.6126750  93.4168940  60.3764930   5.1433990  90.5873990
  59.6027190   4.6031610  90.4272710  61.1059560   4.6240600  90.2491750
  60.4202330   4.8114370  94.2252800  60.9381000   4.0082630  94.1709690
  59.9686350   4.7493510  95.0669630  65.3071830   6.0780650  89.4980100
  65.6487530   6.8222880  89.0023420  64.4784540   6.3911770  89.8604930
  72.6112760   8.0711060  91.0153920  71.9688920   7.4166680  91.2897640
  72.2243420   8.4766150  90.2394590  68.1899240   5.3996490  94.8625610
  68.5423060   4.8024620  94.2026980  67.3061570   5.0740720  95.0333860
  64.2762520   6.1594180  92.2696020  64.9633650   6.7063390  92.6503610
  63.4894940   6.7034910  92.3045630  56.4154920   1.7767000  87.7613100
  57.2849770   2.0591800  88.0449020  55.9245240   2.5902870  87.6461910
  63.5789730   3.1640210  91.8821380  64.0352510   3.9745460  92.1081570
  63.2277940   2.8463350  92.7139870  71.0010140   6.9627520  87.5530270
  70.7747720   6.2457960  88.1454910  70.6106340   6.7139960  86.7152020
  56.7826170  10.9894380  88.3274730  57.1423810  11.5883720  87.6732000
  56.6418510  11.5354270  89.1009760  70.5826390   4.8799460  89.2144430
  70.2948090   5.3412150  90.0022310  71.3778560   4.4197230  89.4828650
  62.7994790   8.3725580  89.1448400  62.7904890   9.1055270  88.5292910
  61.8793150   8.1257160  89.2375360  58.4001430   3.5940470  89.8895160
  57.7929380   4.3339370  89.8990460  58.8750780   3.6839830  89.0633360
  65.7854390   8.4353820  87.8073590  65.8866370   8.2317810  86.8775570
  64.8856130   8.1812100  88.0121370  64.4272500  10.9540140  92.5021260
  64.6814000  10.9161530  91.5800630  63.4784980  10.8273470  92.4949510
  60.4106720   3.5551620  87.6383730  61.1769990   3.4432980  88.2009160
  60.4881410   2.8589590  86.9860500  59.9068190  11.1372080  95.4251160
  60.6430670  10.5887540  95.6959730  60.2909110  12.0028090  95.2857150
  56.7913670   7.2045650  91.2992670  55.8653450   7.4466790  91.2898080
  57.2570100   8.0319910  91.1777420  63.0170500  10.3102390  87.2476730
  63.8099110  10.5991220  86.7958520  62.4974850   9.8794560  86.5689210
  72.0700670   9.5372520  88.6713470  71.7842180   9.1237660  87.8567650
  71.8720220  10.4660230  88.5513990  63.5347900   5.5305800  87.1119080
  63.4298540   4.9158150  87.8380460  63.3672120   5.0071690  86.3282090
  66.7750630   4.5925830  87.7161070  66.2260730   5.0395130  88.3603810
  67.3969890   4.0875080  88.2398740  62.4425750   3.5516750  89.6126370
  62.8642170   3.3856620  90.4557760  62.5676590   2.7416980  89.1181510
  64.9553390   2.5754360  86.8603470  65.4759050   1.8603380  86.4944620
  65.6021790   3.2140230  87.1603980  65.5201420  10.6565970  89.1505210
  66.4152210  10.9950940  89.1723970  65.5519050   9.9345380  88.5229490
  59.1597580   6.0293020  87.3792210  59.5972450   6.5722690  88.0349790
  59.6445310   5.2039970  87.3888550  56.3743380   8.8182050  94.8312470
  56.7046390   7.9503110  94.5991110  56.8034380   9.0240570  95.6617430
  60.9705300   7.1491060  92.4914440  60.6700840   7.0256030  93.3918350
  60.8642790   6.2899650  92.0830170  73.7397220   6.9287460  87.1941120
  72.9090180   6.9964110  87.6648350  73.9169050   7.8191580  86.8907980
  73.1953680   3.6734940  89.6975320  73.9572590   4.2431590  89.8035010
  73.2108050   3.1062140  90.4683630  56.6958020   2.1972870  93.9282980
  56.0406860   1.9284510  93.2842680  57.5335970   2.0877350  93.4784960
  74.2013650   4.5285040  94.5417250  74.5722480   3.7452360  94.1353220
  74.8415580   5.2174140  94.3634550  73.2472850   3.9669310  86.8547840
  73.5221690   4.8748190  86.7267060  73.0583590   3.9031840  87.7909830
  71.2423460  10.6640220  93.4815840  71.8382530  10.3424790  92.8050260
  71.5001610  10.1912040  94.2729110  56.9016290  10.7253150  92.9109050
  56.7338330  10.0923830  93.6090940  56.0350800  10.9312550  92.5603240
  58.5078990   9.4186380  90.3559190  57.9826610   9.7994410  89.6521150
  58.4323570  10.0437150  91.0768900  73.2644310  10.9773920  91.6773130
  73.4396500  10.2911660  91.0334050  72.5665880  11.5020970  91.2849800
  61.1071960  11.3668760  89.2308440  61.8390780  11.0828040  88.6832330
  61.3665630  11.1282040  90.1207820  60.2686750   7.4833490  89.2354770
  59.6395630   7.9518590  89.7840600  60.3834580   6.6382710  89.6700960
  65.8554510   3.3118170  77.2665240  65.0796610   2.8318610  77.5563810
  66.5067440   2.6323820  77.0921400  59.8720340   3.6237980  78.1441000
  59.0405220   3.3686690  78.5437510  60.4801320   3.6948750  78.8798920
  69.8761940   7.7178360  76.0464370  69.4143470   6.9465600  76.3751540
  70.6887490   7.7444430  76.5516820  59.8521600   7.6578070  78.3399020
  60.1549640   6.7675810  78.1609240  60.5965190   8.2148290  78.1121270
  66.1025250  10.0036370  75.6668360  65.4836690  10.4593870  75.0962800
  66.9577030  10.1587830  75.2658060  65.2963500   5.9875360  77.2735400
  65.2271780   5.0465300  77.1124530  66.0583360   6.0776770  77.8457970
  66.9688600   4.8875610  73.0600270  66.3505870   5.3525060  72.4962990
  67.4811850   5.5803090  73.4769780  61.8320360   4.4151480  79.7383870
  61.4989740   5.0420400  80.3804940  62.0087040   4.9413360  78.9585540
  61.0439460   6.3832280  81.5533050  61.6613460   7.0583360  81.2717500
  60.1832580   6.7920260  81.4620550  56.3371800   5.5732140  70.4339900
  55.9599780   6.0619240  69.7024800  56.5944870   6.2457420  71.0646430
  71.9617050   7.8471690  79.4687690  71.2780570   8.5170800  79.4604360
  72.5011340   8.0452340  78.7032550  69.4975790   9.6915820  78.1832870
  69.5102950   9.2878110  77.3155130  68.9451010  10.4663110  78.0794300
  70.7921210   6.4132040  73.2723040  70.6817540   5.4706370  73.3972460
  70.7889460   6.7747680  74.1585800  68.8961230   4.5945660  79.5115480
  69.3130020   4.3805770  78.6768940  69.6201050   4.8518450  80.0824100
  66.3341490   2.0397360  72.6285530  65.4070770   1.9734740  72.8574000
  66.4866310   2.9777490  72.5140770  72.8423330   2.9932880  79.6031720
  72.0141960   3.0625970  79.1281850  73.4373810   3.5787190  79.1347550
  70.3638780   3.6017660  73.1320780  69.7451200   3.2637210  72.4847080
  70.3463230   2.9577420  73.8399970  61.9398130   2.5662100  75.4105260
  61.5355130   1.8539350  74.9151160  62.0261250   2.2215340  76.2993300
  62.4079830   6.2529660  77.5744470  62.1108120   5.6475130  76.8952250
  63.3579650   6.2906970  77.4633830  70.4965440   9.8261530  81.2367570
  70.0196000  10.6333720  81.0440180  69.8127230   9.1739860  81.3893780
  61.4998260   5.9911350  84.2252270  60.6026790   6.2151320  84.4725670
  61.5251130   6.1146290  83.2763670  68.5403480   2.8404470  70.1393530
  68.9796760   2.0026900  69.9931350  69.2531900   3.4733870  70.2257670
  60.3269480   2.8624670  82.8009640  60.1877250   3.7347470  83.1697040
  59.4450840   2.5197480  82.6557580  66.6498860   7.7800540  74.1074770
  67.0894770   8.5224870  73.6930160  66.5885750   8.0227110  75.0313730
  62.1249830   8.8046370  85.0094790  62.0965260   9.2089320  84.1423220
  61.9614800   7.8756730  84.8466390  74.0764650   9.5873470  86.3058960
  74.5524370  10.0656360  86.9848040  74.6971810   9.5190960  85.5804460
  56.2788130   4.6322220  78.7180550  56.3568550   4.7670990  77.7736270
  56.8929810   3.9238110  78.9108670  57.5235760   6.3322410  75.1286730
  57.1163840   6.4737000  74.2740330  58.4148770   6.0482570  74.9257940
  73.4797900   6.7786320  83.4658970  73.6060960   6.5398200  82.5476150
  73.5219280   5.9470860  83.9381050  67.3414640  10.4814320  82.0353780
  67.8559310  10.3922330  82.8376210  66.4983720  10.8274020  82.3281690
  69.3169040  10.7669660  71.4637780  69.1570180  10.4772600  72.3619610
  69.1515750   9.9909790  70.9283010  61.7957420  10.5468190  73.2409400
  61.6199900   9.6303730  73.0277200  60.9413160  10.9055480  73.4807200
  69.0195170   8.2757220  70.0235780  68.3260330   8.2734510  69.3638060
  69.7618030   7.8516540  69.5929950  68.5845100   9.9019930  74.0984270
  69.0402050   9.1209310  74.4122890  68.9237620  10.6126750  74.6425450
  56.3347650   5.6736390  81.2575010  56.4978690   5.2041750  80.4394380
  56.8000100   5.1659950  81.9223850  57.9086630   5.0487820  83.4170820
  57.5241420   4.4081490  84.0153780  58.2198820   5.7523940  83.9865550
  64.0583770   1.8964360  78.8979440  64.4253900   1.4222930  79.6440780
  63.8688830   2.7705930  79.2387780  60.3764930   5.1433990  71.8130500
  59.6027190   4.6031610  71.6529220  61.1059560   4.6240600  71.4748260
  71.1352910   4.1399350  77.6056890  71.8552030   4.6354640  77.2153000
  70.9334730   3.4617240  76.9610760  66.5171710   4.2108410  83.4925890
  66.4509020   3.2904080  83.2383480  65.8876850   4.3083850  84.2070530
  60.4202330   4.8114370  75.4509310  60.9381000   4.0082630  75.3966200
  59.9686350   4.7493510  76.2926140  65.3071830   6.0780650  70.7236610
  65.6487530   6.8222880  70.2279930  64.4784540   6.3911770  71.0861440
  61.1059990   2.2359980  85.2474560  60.8060130   2.3817160  84.3502380
  61.8771230   1.6765270  85.1547950  66.4488440   7.0328980  83.2429690
  66.4632980   6.1009940  83.0248600  65.7413540   7.1188740  83.8819460
  72.6599650   3.6736320  82.5898270  71.9347840   4.2665100  82.3927660
  73.1875110   3.6659860  81.7911640  72.6112760   8.0711060  72.2410430
  71.9688920   7.4166680  72.5154150  72.2243420   8.4766150  71.4651100
  68.1899240   5.3996490  76.0882120  68.5423060   4.8024620  75.4283490
  67.3061570   5.0740720  76.2590370  64.2762520   6.1594180  73.4952530
  64.9633650   6.7063390  73.8760120  63.4894940   6.7034910  73.5302140
  56.4154920   1.7767000  68.9869610  57.2849770   2.0591800  69.2705530
  55.9245240   2.5902870  68.8718420  63.5789730   3.1640210  73.1077890
  64.0352510   3.9745460  73.3338080  63.2277940   2.8463350  73.9396380
  65.8822340   8.6746550  80.3370190  66.5264560   8.8805930  81.0143610
  66.2451780   7.9134950  79.8841040  67.1554420   6.6778900  79.0547640
  67.7976650   5.9772060  79.1679810  67.6803770   7.4577340  78.8744530
  71.0010140   6.9627520  68.7786780  70.7747720   6.2457960  69.3711420
  70.6106340   6.7139960  67.9408530  68.9292040   7.4773800  82.2583700
  69.2648280   8.0640490  82.9361620  68.0092380   7.3466510  82.4881490
  56.7826170  10.9894380  69.5531240  57.1423810  11.5883720  68.8988510
  56.6418510  11.5354270  70.3266270  70.5826390   4.8799460  70.4400940
  70.2948090   5.3412150  71.2278820  71.3778560   4.4197230  70.7085160
  56.7668030   9.2549240  84.0273640  56.8759150   8.3143980  83.8869030
  56.1148590   9.5203990  83.3787370  64.7580620   7.5265130  85.4271760
  64.4377490   6.8074370  85.9717450  64.0838980   8.2020200  85.5007820
  62.7994790   8.3725580  70.3704910  62.7904890   9.1055270  69.7549420
  61.8793150   8.1257160  70.4631870  58.4001430   3.5940470  71.1151670
  57.7929380   4.3339370  71.1246970  58.8750780   3.6839830  70.2889870
  65.7854390   8.4353820  69.0330100  65.8866370   8.2317810  68.1032080
  64.8856130   8.1812100  69.2377880  64.4272500  10.9540140  73.7277770
  64.6814000  10.9161530  72.8057140  63.4784980  10.8273470  73.7206020
  60.4106720   3.5551620  68.8640240  61.1769990   3.4432980  69.4265670
  60.4881410   2.8589590  68.2117010  72.4350660   9.0440870  76.9790540
  72.5598080   9.8672040  77.4514350  73.3016220   8.8331600  76.6314690
  59.9068190  11.1372080  76.6507670  60.6430670  10.5887540  76.9216240
  60.2909110  12.0028090  76.5113660  56.7913670   7.2045650  72.5249180
  55.8653450   7.4466790  72.5154590  57.2570100   8.0319910  72.4033930
  58.9126470  10.3218150  85.8393250  59.7139200  10.6430200  86.2528650
  58.3978290   9.9613730  86.5613160  63.0170500  10.3102390  68.4733240
  63.8099110  10.5991220  68.0215030  62.4974850   9.8794560  67.7945720
  67.7491100   6.4298020  85.7868660  67.1429260   6.4529620  85.0464410
  67.4445210   5.6981060  86.3235910  69.1791470  10.1578310  84.3978070
  70.1313220  10.0736330  84.3478310  69.0319690  10.8220020  85.0711860
  72.0700670   9.5372520  69.8969980  71.7842180   9.1237660  69.0824160
  71.8720220  10.4660230  69.7770500  56.6324280   2.8091610  84.7829300
  57.1363300   2.2298890  85.3545530  55.8931700   3.0931840  85.3205670
  63.5347900   5.5305800  68.3375590  63.4298540   4.9158150  69.0636970
  63.3672120   5.0071690  67.5538600  63.6862220   4.2162600  84.3164820
  62.9207890   4.7847600  84.2319490  63.8678180   3.9238810  83.4233050
  66.7750630   4.5925830  68.9417580  66.2260730   5.0395130  69.5860320
  67.3969890   4.0875080  69.4655250  70.8285570   5.9467930  84.8739840
  71.5695040   6.2843690  84.3707300  70.0658250   6.1159990  84.3209610
  62.4425750   3.5516750  70.8382880  62.8642170   3.3856620  71.6814270
  62.5676590   2.7416980  70.3438020  64.9553390   2.5754360  68.0859980
  65.4759050   1.8603380  67.7201130  65.6021790   3.2140230  68.3860490
  69.5031230   3.9982760  83.4095050  69.9172250   4.1527840  84.2585470
  68.5682230   4.1237980  83.5720830  64.2646460   3.9503240  81.3790980
  64.6834570   4.7935970  81.2067220  63.3455090   4.0875280  81.1497760
  68.9398260   2.2356610  81.3391330  68.4133480   2.7599230  80.7356470
  69.2829600   2.8684000  81.9701060  62.1153880  10.2556250  82.4948710
  61.5774970  10.9802310  82.1757410  62.3687840   9.7786590  81.7046050
  64.9716090  11.4907460  82.7535360  64.8974790  12.3942600  83.0607730
  64.0694930  11.1719360  82.7257430  65.5201420  10.6565970  70.3761720
  66.4152210  10.9950940  70.3980480  65.5519050   9.9345380  69.7486000
  59.1597580   6.0293020  68.6048720  59.5972450   6.5722690  69.2606300
  59.6445310   5.2039970  68.6145060  56.3743380   8.8182050  76.0568980
  56.7046390   7.9503110  75.8247620  56.8034380   9.0240570  76.8873940
  60.9705300   7.1491060  73.7170950  60.6700840   7.0256030  74.6174860
  60.8642790   6.2899650  73.3086680  56.8633590   9.6852640  78.7950610
  56.4264580   9.8653440  79.6274760  57.4311270  10.4427260  78.6532330
  72.4995770   9.1869640  83.0827920  71.8997760   9.2462200  82.3391840
  72.6289670   8.2474620  83.2124770  73.7397220   6.9287460  68.4197630
  72.9090180   6.9964110  68.8904860  73.9169050   7.8191580  68.1164490
  73.1953680   3.6734940  70.9231830  73.9572590   4.2431590  71.0291520
  73.2108050   3.1062140  71.6940140  56.6958020   2.1972870  75.1539490
  56.0406860   1.9284510  74.5099190  57.5335970   2.0877350  74.7041470
  74.2013650   4.5285040  75.7673760  74.5722480   3.7452360  75.3609730
  74.8415580   5.2174140  75.5891060  71.1847410   5.9121620  81.1804080
  70.3707250   6.3418780  81.4429870  71.5921610   6.5240030  80.5673130
  73.2472850   3.9669310  68.0804350  73.5221690   4.8748190  67.9523570
  73.0583590   3.9031840  69.0166340  57.7333950   2.5825440  79.6942830
  58.1006990   2.4952840  80.5738850  57.1644770   1.8191990  79.5949690
  71.2423460  10.6640220  74.7072350  71.8382530  10.3424790  74.0306770
  71.5001610  10.1912040  75.4985620  59.1486030   7.0958130  84.8562980
  59.1055660   6.7251040  85.7377440  59.2797040   8.0335700  84.9964800
  62.8492060   8.6517720  80.4572700  62.6083420   8.9192280  79.5703220
  63.7894700   8.8223450  80.5123560  74.1096220  10.6712100  81.2583340
  73.6154500  11.0680970  80.5410470  73.5009510  10.0461310  81.6520620
  58.9874060  10.0420380  81.9760760  58.3934380   9.9105080  82.7150800
  58.9797900   9.2058520  81.5102860  71.7935670  11.3135520  78.5370080
  71.3338640  12.0651330  78.1628100  71.1648130  10.5941990  78.4784880
  58.6186290   7.4078760  80.9268800  57.8920350   6.7884050  80.8594750
  58.6795440   7.8019370  80.0566880  62.2231390   9.6223760  77.7118210
  62.7396410   9.0111120  77.1866470  62.8728770  10.1252540  78.2029220
  64.9626890  10.5132250  78.5387190  65.2504700  10.2586550  77.6620200
  65.4750110   9.9609610  79.1292760  56.9016290  10.7253150  74.1365560
  56.7338330  10.0923830  74.8347450  56.0350800  10.9312550  73.7859750
  58.5078990   9.4186380  71.5815700  57.9826610   9.7994410  70.8777660
  58.4323570  10.0437150  72.3025410  65.0299250  11.4348350  85.9055390
  65.9566560  11.1992620  85.9491350  65.0149680  12.2620350  85.4241420
  73.2644310  10.9773920  72.9029640  73.4396500  10.2911660  72.2590560
  72.5665880  11.5020970  72.5106310  61.1071960  11.3668760  70.4564950
  61.8390780  11.0828040  69.9088840  61.3665630  11.1282040  71.3464330
  60.2686750   7.4833490  70.4611280  59.6395630   7.9518590  71.0097110
  60.3834580   6.6382710  70.8957470  71.5976810  10.6618210  85.7296430
  72.3902130  10.1667440  85.5222390  71.8909960  11.3408350  86.3372040
  65.8554510   3.3118170  58.4921750  65.0796610   2.8318610  58.7820320
  66.5067440   2.6323820  58.3177910  59.8720340   3.6237980  59.3697510
  59.0405220   3.3686690  59.7694020  60.4801320   3.6948750  60.1055430
  69.8761940   7.7178360  57.2720880  69.4143470   6.9465600  57.6008050
  70.6887490   7.7444430  57.7773330  59.8521600   7.6578070  59.5655530
  60.1549640   6.7675810  59.3865750  60.5965190   8.2148290  59.3377780
  66.1025250  10.0036370  56.8924870  65.4836690  10.4593870  56.3219310
  66.9577030  10.1587830  56.4914570  65.2963500   5.9875360  58.4991910
  65.2271780   5.0465300  58.3381040  66.0583360   6.0776770  59.0714480
  66.9688600   4.8875610  54.2856780  66.3505870   5.3525060  53.7219500
  67.4811850   5.5803090  54.7026290  61.8320360   4.4151480  60.9640380
  61.4989740   5.0420400  61.6061450  62.0087040   4.9413360  60.1842050
  61.0439460   6.3832280  62.7789560  61.6613460   7.0583360  62.4974010
  60.1832580   6.7920260  62.6877060  56.3371800   5.5732140  51.6596410
  55.9599780   6.0619240  50.9281310  56.5944870   6.2457420  52.2902940
  71.9617050   7.8471690  60.6944200  71.2780570   8.5170800  60.6860870
  72.5011340   8.0452340  59.9289060  69.4975790   9.6915820  59.4089380
  69.5102950   9.2878110  58.5411640  68.9451010  10.4663110  59.3050810
  70.7921210   6.4132040  54.4979550  70.6817540   5.4706370  54.6228970
  70.7889460   6.7747680  55.3842310  68.8961230   4.5945660  60.7371990
  69.3130020   4.3805770  59.9025450  69.6201050   4.8518450  61.3080610
  66.3341490   2.0397360  53.8542040  65.4070770   1.9734740  54.0830510
  66.4866310   2.9777490  53.7397280  72.8423330   2.9932880  60.8288230
  72.0141960   3.0625970  60.3538360  73.4373810   3.5787190  60.3604060
  70.3638780   3.6017660  54.3577290  69.7451200   3.2637210  53.7103590
  70.3463230   2.9577420  55.0656480  61.9398130   2.5662100  56.6361770
  61.5355130   1.8539350  56.1407670  62.0261250   2.2215340  57.5249810
  62.4079830   6.2529660  58.8000980  62.1108120   5.6475130  58.1208760
  63.3579650   6.2906970  58.6890340  70.4965440   9.8261530  62.4624080
  70.0196000  10.6333720  62.2696690  69.8127230   9.1739860  62.6150290
  61.4998260   5.9911350  65.4508780  60.6026790   6.2151320  65.6982180
  61.5251130   6.1146290  64.5020180  68.5403480   2.8404470  51.3650040
  68.9796760   2.0026900  51.2187860  69.2531900   3.4733870  51.4514180
  60.3269480   2.8624670  64.0266150  60.1877250   3.7347470  64.3953550
  59.4450840   2.5197480  63.8814090  66.6498860   7.7800540  55.3331280
  67.0894770   8.5224870  54.9186670  66.5885750   8.0227110  56.2570240
  62.1249830   8.8046370  66.2351300  62.0965260   9.2089320  65.3679730
  61.9614800   7.8756730  66.0722900  74.0764650   9.5873470  67.5315470
  74.5524370  10.0656360  68.2104550  74.6971810   9.5190960  66.8060970
  56.2788130   4.6322220  59.9437060  56.3568550   4.7670990  58.9992780
  56.8929810   3.9238110  60.1365180  57.5235760   6.3322410  56.3543240
  57.1163840   6.4737000  55.4996840  58.4148770   6.0482570  56.1514450
  73.4797900   6.7786320  64.6915480  73.6060960   6.5398200  63.7732660
  73.5219280   5.9470860  65.1637560  67.3414640  10.4814320  63.2610290
  67.8559310  10.3922330  64.0632720  66.4983720  10.8274020  63.5538200
  69.3169040  10.7669660  52.6894290  69.1570180  10.4772600  53.5876120
  69.1515750   9.9909790  52.1539520  61.7957420  10.5468190  54.4665910
  61.6199900   9.6303730  54.2533710  60.9413160  10.9055480  54.7063710
  69.0195170   8.2757220  51.2492290  68.3260330   8.2734510  50.5894570
  69.7618030   7.8516540  50.8186460  68.5845100   9.9019930  55.3240780
  69.0402050   9.1209310  55.6379400  68.9237620  10.6126750  55.8681960
  56.3347650   5.6736390  62.4831520  56.4978690   5.2041750  61.6650890
  56.8000100   5.1659950  63.1480360  57.9086630   5.0487820  64.6427330
  57.5241420   4.4081490  65.2410290  58.2198820   5.7523940  65.2122060
  64.0583770   1.8964360  60.1235950  64.4253900   1.4222930  60.8697290
  63.8688830   2.7705930  60.4644290  60.3764930   5.1433990  53.0387010
  59.6027190   4.6031610  52.8785730  61.1059560   4.6240600  52.7004770
  71.1352910   4.1399350  58.8313400  71.8552030   4.6354640  58.4409510
  70.9334730   3.4617240  58.1867270  66.5171710   4.2108410  64.7182400
  66.4509020   3.2904080  64.4639990  65.8876850   4.3083850  65.4327040
  60.4202330   4.8114370  56.6765820  60.9381000   4.0082630  56.6222710
  59.9686350   4.7493510  57.5182650  65.3071830   6.0780650  51.9493120
  65.6487530   6.8222880  51.4536440  64.4784540   6.3911770  52.3117950
  61.1059990   2.2359980  66.4731070  60.8060130   2.3817160  65.5758890
  61.8771230   1.6765270  66.3804460  66.4488440   7.0328980  64.4686200
  66.4632980   6.1009940  64.2505110  65.7413540   7.1188740  65.1075970
  72.6599650   3.6736320  63.8154780  71.9347840   4.2665100  63.6184170
  73.1875110   3.6659860  63.0168150  72.6112760   8.0711060  53.4666940
  71.9688920   7.4166680  53.7410660  72.2243420   8.4766150  52.6907610
  68.1899240   5.3996490  57.3138630  68.5423060   4.8024620  56.6540000
  67.3061570   5.0740720  57.4846880  64.2762520   6.1594180  54.7209040
  64.9633650   6.7063390  55.1016630  63.4894940   6.7034910  54.7558650
  56.4154920   1.7767000  50.2126120  57.2849770   2.0591800  50.4962040
  55.9245240   2.5902870  50.0974930  63.5789730   3.1640210  54.3334400
  64.0352510   3.9745460  54.5594590  63.2277940   2.8463350  55.1652890
  65.8822340   8.6746550  61.5626700  66.5264560   8.8805930  62.2400120
  66.2451780   7.9134950  61.1097550  67.1554420   6.6778900  60.2804150
  67.7976650   5.9772060  60.3936320  67.6803770   7.4577340  60.1001040
  71.0010140   6.9627520  50.0043290  70.7747720   6.2457960  50.5967930
  70.6106340   6.7139960  49.1665040  68.9292040   7.4773800  63.4840210
  69.2648280   8.0640490  64.1618130  68.0092380   7.3466510  63.7138000
  56.7826170  10.9894380  50.7787750  57.1423810  11.5883720  50.1245020
  56.6418510  11.5354270  51.5522780  70.5826390   4.8799460  51.6657450
  70.2948090   5.3412150  52.4535330  71.3778560   4.4197230  51.9341670
  56.7668030   9.2549240  65.2530150  56.8759150   8.3143980  65.1125540
  56.1148590   9.5203990  64.6043880  64.7580620   7.5265130  66.6528270
  64.4377490   6.8074370  67.1973960  64.0838980   8.2020200  66.7264330
  62.7994790   8.3725580  51.5961420  62.7904890   9.1055270  50.9805930
  61.8793150   8.1257160  51.6888380  58.4001430   3.5940470  52.3408180
  57.7929380   4.3339370  52.3503480  58.8750780   3.6839830  51.5146380
  65.7854390   8.4353820  50.2586610  65.8866370   8.2317810  49.3288590
  64.8856130   8.1812100  50.4634390  64.4272500  10.9540140  54.9534280
  64.6814000  10.9161530  54.0313650  63.4784980  10.8273470  54.9462530
  60.4106720   3.5551620  50.0896750  61.1769990   3.4432980  50.6522180
  60.4881410   2.8589590  49.4373520  72.4350660   9.0440870  58.2047050
  72.5598080   9.8672040  58.6770860  73.3016220   8.8331600  57.8571200
  59.9068190  11.1372080  57.8764180  60.6430670  10.5887540  58.1472750
  60.2909110  12.0028090  57.7370170  56.7913670   7.2045650  53.7505690
  55.8653450   7.4466790  53.7411100  57.2570100   8.0319910  53.6290440
  58.9126470  10.3218150  67.0649760  59.7139200  10.6430200  67.4785160
  58.3978290   9.9613730  67.7869670  63.0170500  10.3102390  49.6989750
  63.8099110  10.5991220  49.2471540  62.4974850   9.8794560  49.0202230
  67.7491100   6.4298020  67.0125170  67.1429260   6.4529620  66.2720920
  67.4445210   5.6981060  67.5492420  69.1791470  10.1578310  65.6234580
  70.1313220  10.0736330  65.5734820  69.0319690  10.8220020  66.2968370
  72.0700670   9.5372520  51.1226490  71.7842180   9.1237660  50.3080670
  71.8720220  10.4660230  51.0027010  56.6324280   2.8091610  66.0085810
  57.1363300   2.2298890  66.5802040  55.8931700   3.0931840  66.5462180
  63.5347900   5.5305800  49.5632100  63.4298540   4.9158150  50.2893480
  63.3672120   5.0071690  48.7795110  63.6862220   4.2162600  65.5421330
  62.9207890   4.7847600  65.4576000  63.8678180   3.9238810  64.6489560
  66.7750630   4.5925830  50.1674090  66.2260730   5.0395130  50.8116830
  67.3969890   4.0875080  50.6911760  70.8285570   5.9467930  66.0996350
  71.5695040   6.2843690  65.5963810  70.0658250   6.1159990  65.5466120
  62.4425750   3.5516750  52.0639390  62.8642170   3.3856620  52.9070780
  62.5676590   2.7416980  51.5694530  64.9553390   2.5754360  49.3116490
  65.4759050   1.8603380  48.9457640  65.6021790   3.2140230  49.6117000
  69.5031230   3.9982760  64.6351560  69.9172250   4.1527840  65.4841980
  68.5682230   4.1237980  64.7977340  64.2646460   3.9503240  62.6047490
  64.6834570   4.7935970  62.4323730  63.3455090   4.0875280  62.3754270
  68.9398260   2.2356610  62.5647840  68.4133480   2.7599230  61.9612980
  69.2829600   2.8684000  63.1957570  62.1153880  10.2556250  63.7205220
  61.5774970  10.9802310  63.4013920  62.3687840   9.7786590  62.9302560
  64.9716090  11.4907460  63.9791870  64.8974790  12.3942600  64.2864240
  64.0694930  11.1719360  63.9513940  65.5201420  10.6565970  51.6018230
  66.4152210  10.9950940  51.6236990  65.5519050   9.9345380  50.9742510
  59.1597580   6.0293020  49.8305230  59.5972450   6.5722690  50.4862810
  59.6445310   5.2039970  49.8401570  56.3743380   8.8182050  57.2825490
  56.7046390   7.9503110  57.0504130  56.8034380   9.0240570  58.1130450
  60.9705300   7.1491060  54.9427460  60.6700840   7.0256030  55.8431370
  60.8642790   6.2899650  54.5343190  56.8633590   9.6852640  60.0207120
  56.4264580   9.8653440  60.8531270  57.4311270  10.4427260  59.8788840
  72.4995770   9.1869640  64.3084430  71.8997760   9.2462200  63.5648350
  72.6289670   8.2474620  64.4381280  73.7397220   6.9287460  49.6454140
  72.9090180   6.9964110  50.1161370  73.9169050   7.8191580  49.3421000
  73.1953680   3.6734940  52.1488340  73.9572590   4.2431590  52.2548030
  73.2108050   3.1062140  52.9196650  56.6958020   2.1972870  56.3796000
  56.0406860   1.9284510  55.7355700  57.5335970   2.0877350  55.9297980
  74.2013650   4.5285040  56.9930270  74.5722480   3.7452360  56.5866240
  74.8415580   5.2174140  56.8147570  71.1847410   5.9121620  62.4060590
  70.3707250   6.3418780  62.6686380  71.5921610   6.5240030  61.7929640
  73.2472850   3.9669310  49.3060860  73.5221690   4.8748190  49.1780080
  73.0583590   3.9031840  50.2422850  57.7333950   2.5825440  60.9199340
  58.1006990   2.4952840  61.7995360  57.1644770   1.8191990  60.8206200
  71.2423460  10.6640220  55.9328860  71.8382530  10.3424790  55.2563280
  71.5001610  10.1912040  56.7242130  59.1486030   7.0958130  66.0819490
  59.1055660   6.7251040  66.9633950  59.2797040   8.0335700  66.2221310
  62.8492060   8.6517720  61.6829210  62.6083420   8.9192280  60.7959730
  63.7894700   8.8223450  61.7380070  74.1096220  10.6712100  62.4839850
  73.6154500  11.0680970  61.7666980  73.5009510  10.0461310  62.8777130
  58.9874060  10.0420380  63.2017270  58.3934380   9.9105080  63.9407310
  58.9797900   9.2058520  62.7359370  71.7935670  11.3135520  59.7626590
  71.3338640  12.0651330  59.3884610  71.1648130  10.5941990  59.7041390
  58.6186290   7.4078760  62.1525310  57.8920350   6.7884050  62.0851260
  58.6795440   7.8019370  61.2823390  62.2231390   9.6223760  58.9374720
  62.7396410   9.0111120  58.4122980  62.8728770  10.1252540  59.4285730
  64.9626890  10.5132250  59.7643700  65.2504700  10.2586550  58.8876710
  65.4750110   9.9609610  60.3549270  56.9016290  10.7253150  55.3622070
  56.7338330  10.0923830  56.0603960  56.0350800  10.9312550  55.0116260
  58.5078990   9.4186380  52.8072210  57.9826610   9.7994410  52.1034170
  58.4323570  10.0437150  53.5281920  65.0299250  11.4348350  67.1311900
  65.9566560  11.1992620  67.1747860  65.0149680  12.2620350  66.6497930
  73.2644310  10.9773920  54.1286150  73.4396500  10.2911660  53.4847070
  72.5665880  11.5020970  53.7362820  61.1071960  11.3668760  51.6821460
  61.8390780  11.0828040  51.1345350  61.3665630  11.1282040  52.5720840
  60.2686750   7.4833490  51.6867790  59.6395630   7.9518590  52.2353620
  60.3834580   6.6382710  52.1213980  71.5976810  10.6618210  66.9552940
  72.3902130  10.1667440  66.7478900  71.8909960  11.3408350  67.5628550
  65.8554510   3.3118170  39.7178260  65.0796610   2.8318610  40.0076830
  66.5067440   2.6323820  39.5434420  59.8720340   3.6237980  40.5954020
  59.0405220   3.3686690  40.9950530  60.4801320   3.6948750  41.3311940
  69.8761940   7.7178360  38.4977390  69.4143470   6.9465600  38.8264560
  70.6887490   7.7444430  39.0029840  59.8521600   7.6578070  40.7912040
  60.1549640   6.7675810  40.6122260  60.5965190   8.2148290  40.5634290
  66.1025250  10.0036370  38.1181380  65.4836690  10.4593870  37.5475820
  66.9577030  10.1587830  37.7171080  65.2963500   5.9875360  39.7248420
  65.2271780   5.0465300  39.5637550  66.0583360   6.0776770  40.2970990
  66.9688600   4.8875610  35.5113290  66.3505870   5.3525060  34.9476010
  67.4811850   5.5803090  35.9282800  61.8320360   4.4151480  42.1896890
  61.4989740   5.0420400  42.8317960  62.0087040   4.9413360  41.4098560
  61.0439460   6.3832280  44.0046070  61.6613460   7.0583360  43.7230520
  60.1832580   6.7920260  43.9133570  56.3371800   5.5732140  32.8852920
  55.9599780   6.0619240  32.1537820  56.5944870   6.2457420  33.5159450
  71.9617050   7.8471690  41.9200710  71.2780570   8.5170800  41.9117380
  72.5011340   8.0452340  41.1545570  69.4975790   9.6915820  40.6345890
  69.5102950   9.2878110  39.7668150  68.9451010  10.4663110  40.5307320
  70.7921210   6.4132040  35.7236060  70.6817540   5.4706370  35.8485480
  70.7889460   6.7747680  36.6098820  68.8961230   4.5945660  41.9628500
  69.3130020   4.3805770  41.1281960  69.6201050   4.8518450  42.5337120
  66.3341490   2.0397360  35.0798550  65.4070770   1.9734740  35.3087020
  66.4866310   2.9777490  34.9653790  72.8423330   2.9932880  42.0544740
  72.0141960   3.0625970  41.5794870  73.4373810   3.5787190  41.5860570
  70.3638780   3.6017660  35.5833800  69.7451200   3.2637210  34.9360100
  70.3463230   2.9577420  36.2912990  61.9398130   2.5662100  37.8618280
  61.5355130   1.8539350  37.3664180  62.0261250   2.2215340  38.7506320
  62.4079830   6.2529660  40.0257490  62.1108120   5.6475130  39.3465270
  63.3579650   6.2906970  39.9146850  70.4965440   9.8261530  43.6880590
  70.0196000  10.6333720  43.4953200  69.8127230   9.1739860  43.8406800
  61.4998260   5.9911350  46.6765290  60.6026790   6.2151320  46.9238690
  61.5251130   6.1146290  45.7276690  68.5403480   2.8404470  32.5906550
  68.9796760   2.0026900  32.4444370  69.2531900   3.4733870  32.6770690
  60.3269480   2.8624670  45.2522660  60.1877250   3.7347470  45.6210060
  59.4450840   2.5197480  45.1070600  66.6498860   7.7800540  36.5587790
  67.0894770   8.5224870  36.1443180  66.5885750   8.0227110  37.4826750
  62.1249830   8.8046370  47.4607810  62.0965260   9.2089320  46.5936240
  61.9614800   7.8756730  47.2979410  74.0764650   9.5873470  48.7571980
  74.5524370  10.0656360  49.4361060  74.6971810   9.5190960  48.0317480
  56.2788130   4.6322220  41.1693570  56.3568550   4.7670990  40.2249290
  56.8929810   3.9238110  41.3621690  57.5235760   6.3322410  37.5799750
  57.1163840   6.4737000  36.7253350  58.4148770   6.0482570  37.3770960
  73.4797900   6.7786320  45.9171990  73.6060960   6.5398200  44.9989170
  73.5219280   5.9470860  46.3894070  67.3414640  10.4814320  44.4866800
  67.8559310  10.3922330  45.2889230  66.4983720  10.8274020  44.7794710
  69.3169040  10.7669660  33.9150800  69.1570180  10.4772600  34.8132630
  69.1515750   9.9909790  33.3796030  61.7957420  10.5468190  35.6922420
  61.6199900   9.6303730  35.4790220  60.9413160  10.9055480  35.9320220
  69.0195170   8.2757220  32.4748800  68.3260330   8.2734510  31.8151080
  69.7618030   7.8516540  32.0442970  68.5845100   9.9019930  36.5497290
  69.0402050   9.1209310  36.8635910  68.9237620  10.6126750  37.0938470
  56.3347650   5.6736390  43.7088030  56.4978690   5.2041750  42.8907400
  56.8000100   5.1659950  44.3736870  57.9086630   5.0487820  45.8683840
  57.5241420   4.4081490  46.4666800  58.2198820   5.7523940  46.4378570
  64.0583770   1.8964360  41.3492460  64.4253900   1.4222930  42.0953800
  63.8688830   2.7705930  41.6900800  60.3764930   5.1433990  34.2643520
  59.6027190   4.6031610  34.1042240  61.1059560   4.6240600  33.9261280
  71.1352910   4.1399350  40.0569910  71.8552030   4.6354640  39.6666020
  70.9334730   3.4617240  39.4123780  66.5171710   4.2108410  45.9438910
  66.4509020   3.2904080  45.6896500  65.8876850   4.3083850  46.6583550
  60.4202330   4.8114370  37.9022330  60.9381000   4.0082630  37.8479220
  59.9686350   4.7493510  38.7439160  65.3071830   6.0780650  33.1749630
  65.6487530   6.8222880  32.6792950  64.4784540   6.3911770  33.5374460
  61.1059990   2.2359980  47.6987580  60.8060130   2.3817160  46.8015400
  61.8771230   1.6765270  47.6060970  66.4488440   7.0328980  45.6942710
  66.4632980   6.1009940  45.4761620  65.7413540   7.1188740  46.3332480
  72.6599650   3.6736320  45.0411290  71.9347840   4.2665100  44.8440680
  73.1875110   3.6659860  44.2424660  72.6112760   8.0711060  34.6923450
  71.9688920   7.4166680  34.9667170  72.2243420   8.4766150  33.9164120
  68.1899240   5.3996490  38.5395140  68.5423060   4.8024620  37.8796510
  67.3061570   5.0740720  38.7103390  64.2762520   6.1594180  35.9465550
  64.9633650   6.7063390  36.3273140  63.4894940   6.7034910  35.9815160
  56.4154920   1.7767000  31.4382630  57.2849770   2.0591800  31.7218550
  55.9245240   2.5902870  31.3231440  63.5789730   3.1640210  35.5590910
  64.0352510   3.9745460  35.7851100  63.2277940   2.8463350  36.3909400
  65.8822340   8.6746550  42.7883210  66.5264560   8.8805930  43.4656630
  66.2451780   7.9134950  42.3354060  67.1554420   6.6778900  41.5060660
  67.7976650   5.9772060  41.6192830  67.6803770   7.4577340  41.3257550
  71.0010140   6.9627520  31.2299800  70.7747720   6.2457960  31.8224440
  70.6106340   6.7139960  30.3921550  68.9292040   7.4773800  44.7096720
  69.2648280   8.0640490  45.3874640  68.0092380   7.3466510  44.9394510
  56.7826170  10.9894380  32.0044260  57.1423810  11.5883720  31.3501530
  56.6418510  11.5354270  32.7779290  70.5826390   4.8799460  32.8913960
  70.2948090   5.3412150  33.6791840  71.3778560   4.4197230  33.1598180
  56.7668030   9.2549240  46.4786660  56.8759150   8.3143980  46.3382050
  56.1148590   9.5203990  45.8300390  64.7580620   7.5265130  47.8784780
  64.4377490   6.8074370  48.4230470  64.0838980   8.2020200  47.9520840
  62.7994790   8.3725580  32.8217930  62.7904890   9.1055270  32.2062440
  61.8793150   8.1257160  32.9144890  58.4001430   3.5940470  33.5664690
  57.7929380   4.3339370  33.5759990  58.8750780   3.6839830  32.7402890
  65.7854390   8.4353820  31.4843120  65.8866370   8.2317810  30.5545100
  64.8856130   8.1812100  31.6890900  64.4272500  10.9540140  36.1790790
  64.6814000  10.9161530  35.2570160  63.4784980  10.8273470  36.1719040
  60.4106720   3.5551620  31.3153260  61.1769990   3.4432980  31.8778690
  60.4881410   2.8589590  30.6630030  72.4350660   9.0440870  39.4303560
  72.5598080   9.8672040  39.9027370  73.3016220   8.8331600  39.0827710
  59.9068190  11.1372080  39.1020690  60.6430670  10.5887540  39.3729260
  60.2909110  12.0028090  38.9626680  56.7913670   7.2045650  34.9762200
  55.8653450   7.4466790  34.9667610  57.2570100   8.0319910  34.8546950
  58.9126470  10.3218150  48.2906270  59.7139200  10.6430200  48.7041670
  58.3978290   9.9613730  49.0126180  63.0170500  10.3102390  30.9246260
  63.8099110  10.5991220  30.4728050  62.4974850   9.8794560  30.2458740
  67.7491100   6.4298020  48.2381680  67.1429260   6.4529620  47.4977430
  67.4445210   5.6981060  48.7748930  69.1791470  10.1578310  46.8491090
  70.1313220  10.0736330  46.7991330  69.0319690  10.8220020  47.5224880
  72.0700670   9.5372520  32.3483000  71.7842180   9.1237660  31.5337180
  71.8720220  10.4660230  32.2283520  56.6324280   2.8091610  47.2342320
  57.1363300   2.2298890  47.8058550  55.8931700   3.0931840  47.7718690
  63.5347900   5.5305800  30.7888610  63.4298540   4.9158150  31.5149990
  63.3672120   5.0071690  30.0051620  63.6862220   4.2162600  46.7677840
  62.9207890   4.7847600  46.6832510  63.8678180   3.9238810  45.8746070
  66.7750630   4.5925830  31.3930600  66.2260730   5.0395130  32.0373340
  67.3969890   4.0875080  31.9168270  70.8285570   5.9467930  47.3252860
  71.5695040   6.2843690  46.8220320  70.0658250   6.1159990  46.7722630
  62.4425750   3.5516750  33.2895900  62.8642170   3.3856620  34.1327290
  62.5676590   2.7416980  32.7951040  64.9553390   2.5754360  30.5373000
  65.4759050   1.8603380  30.1714150  65.6021790   3.2140230  30.8373510
  69.5031230   3.9982760  45.8608070  69.9172250   4.1527840  46.7098490
  68.5682230   4.1237980  46.0233850  64.2646460   3.9503240  43.8304000
  64.6834570   4.7935970  43.6580240  63.3455090   4.0875280  43.6010780
  68.9398260   2.2356610  43.7904350  68.4133480   2.7599230  43.1869490
  69.2829600   2.8684000  44.4214080  62.1153880  10.2556250  44.9461730
  61.5774970  10.9802310  44.6270430  62.3687840   9.7786590  44.1559070
  64.9716090  11.4907460  45.2048380  64.8974790  12.3942600  45.5120750
  64.0694930  11.1719360  45.1770450  65.5201420  10.6565970  32.8274740
  66.4152210  10.9950940  32.8493500  65.5519050   9.9345380  32.1999020
  59.1597580   6.0293020  31.0561740  59.5972450   6.5722690  31.7119320
  59.6445310   5.2039970  31.0658080  56.3743380   8.8182050  38.5082000
  56.7046390   7.9503110  38.2760640  56.8034380   9.0240570  39.3386960
  60.9705300   7.1491060  36.1683970  60.6700840   7.0256030  37.0687880
  60.8642790   6.2899650  35.7599700  56.8633590   9.6852640  41.2463630
  56.4264580   9.8653440  42.0787780  57.4311270  10.4427260  41.1045350
  72.4995770   9.1869640  45.5340940  71.8997760   9.2462200  44.7904860
  72.6289670   8.2474620  45.6637790  73.7397220   6.9287460  30.8710650
  72.9090180   6.9964110  31.3417880  73.9169050   7.8191580  30.5677510
  73.1953680   3.6734940  33.3744850  73.9572590   4.2431590  33.4804540
  73.2108050   3.1062140  34.1453160  56.6958020   2.1972870  37.6052510
  56.0406860   1.9284510  36.9612210  57.5335970   2.0877350  37.1554490
  74.2013650   4.5285040  38.2186780  74.5722480   3.7452360  37.8122750
  74.8415580   5.2174140  38.0404080  71.1847410   5.9121620  43.6317100
  70.3707250   6.3418780  43.8942890  71.5921610   6.5240030  43.0186150
  73.2472850   3.9669310  30.5317370  73.5221690   4.8748190  30.4036590
  73.0583590   3.9031840  31.4679360  57.7333950   2.5825440  42.1455850
  58.1006990   2.4952840  43.0251870  57.1644770   1.8191990  42.0462710
  71.2423460  10.6640220  37.1585370  71.8382530  10.3424790  36.4819790
  71.5001610  10.1912040  37.9498640  59.1486030   7.0958130  47.3076000
  59.1055660   6.7251040  48.1890460  59.2797040   8.0335700  47.4477820
  62.8492060   8.6517720  42.9085720  62.6083420   8.9192280  42.0216240
  63.7894700   8.8223450  42.9636580  74.1096220  10.6712100  43.7096360
  73.6154500  11.0680970  42.9923490  73.5009510  10.0461310  44.1033640
  58.9874060  10.0420380  44.4273780  58.3934380   9.9105080  45.1663820
  58.9797900   9.2058520  43.9615880  71.7935670  11.3135520  40.9883100
  71.3338640  12.0651330  40.6141120  71.1648130  10.5941990  40.9297900
  58.6186290   7.4078760  43.3781820  57.8920350   6.7884050  43.3107770
  58.6795440   7.8019370  42.5079900  62.2231390   9.6223760  40.1631230
  62.7396410   9.0111120  39.6379490  62.8728770  10.1252540  40.6542240
  64.9626890  10.5132250  40.9900210  65.2504700  10.2586550  40.1133220
  65.4750110   9.9609610  41.5805780  56.9016290  10.7253150  36.5878580
  56.7338330  10.0923830  37.2860470  56.0350800  10.9312550  36.2372770
  58.5078990   9.4186380  34.0328720  57.9826610   9.7994410  33.3290680
  58.4323570  10.0437150  34.7538430  65.0299250  11.4348350  48.3568410
  65.9566560  11.1992620  48.4004370  65.0149680  12.2620350  47.8754440
  73.2644310  10.9773920  35.3542660  73.4396500  10.2911660  34.7103580
  72.5665880  11.5020970  34.9619330  61.1071960  11.3668760  32.9077970
  61.8390780  11.0828040  32.3601860  61.3665630  11.1282040  33.7977350
  60.2686750   7.4833490  32.9124300  59.6395630   7.9518590  33.4610130
  60.3834580   6.6382710  33.3470490  71.5976810  10.6618210  48.1809450
  72.3902130  10.1667440  47.9735410  71.8909960  11.3408350  48.7885060
  65.8554510   3.3118170  20.9434770  65.0796610   2.8318610  21.2333340
  66.5067440   2.6323820  20.7690930  59.8720340   3.6237980  21.8210530
  59.0405220   3.3686690  22.2207040  60.4801320   3.6948750  22.5568450
  69.8761940   7.7178360  19.7233900  69.4143470   6.9465600  20.0521070
  70.6887490   7.7444430  20.2286350  59.8521600   7.6578070  22.0168550
  60.1549640   6.7675810  21.8378770  60.5965190   8.2148290  21.7890800
  66.1025250  10.0036370  19.3437890  65.4836690  10.4593870  18.7732330
  66.9577030  10.1587830  18.9427590  65.2963500   5.9875360  20.9504930
  65.2271780   5.0465300  20.7894060  66.0583360   6.0776770  21.5227500
  66.9688600   4.8875610  16.7369800  66.3505870   5.3525060  16.1732520
  67.4811850   5.5803090  17.1539310  61.8320360   4.4151480  23.4153400
  61.4989740   5.0420400  24.0574470  62.0087040   4.9413360  22.6355070
  61.0439460   6.3832280  25.2302580  61.6613460   7.0583360  24.9487030
  60.1832580   6.7920260  25.1390080  56.3371800   5.5732140  14.1109430
  55.9599780   6.0619240  13.3794330  56.5944870   6.2457420  14.7415960
  71.9617050   7.8471690  23.1457220  71.2780570   8.5170800  23.1373890
  72.5011340   8.0452340  22.3802080  69.4975790   9.6915820  21.8602400
  69.5102950   9.2878110  20.9924660  68.9451010  10.4663110  21.7563830
  70.7921210   6.4132040  16.9492570  70.6817540   5.4706370  17.0741990
  70.7889460   6.7747680  17.8355330  68.8961230   4.5945660  23.1885010
  69.3130020   4.3805770  22.3538470  69.6201050   4.8518450  23.7593630
  66.3341490   2.0397360  16.3055060  65.4070770   1.9734740  16.5343530
  66.4866310   2.9777490  16.1910300  72.8423330   2.9932880  23.2801250
  72.0141960   3.0625970  22.8051380  73.4373810   3.5787190  22.8117080
  70.3638780   3.6017660  16.8090310  69.7451200   3.2637210  16.1616610
  70.3463230   2.9577420  17.5169500  61.9398130   2.5662100  19.0874790
  61.5355130   1.8539350  18.5920690  62.0261250   2.2215340  19.9762830
  62.4079830   6.2529660  21.2514000  62.1108120   5.6475130  20.5721780
  63.3579650   6.2906970  21.1403360  70.4965440   9.8261530  24.9137100
  70.0196000  10.6333720  24.7209710  69.8127230   9.1739860  25.0663310
  61.4998260   5.9911350  27.9021800  60.6026790   6.2151320  28.1495200
  61.5251130   6.1146290  26.9533200  68.5403480   2.8404470  13.8163060
  68.9796760   2.0026900  13.6700880  69.2531900   3.4733870  13.9027200
  60.3269480   2.8624670  26.4779170  60.1877250   3.7347470  26.8466570
  59.4450840   2.5197480  26.3327110  66.6498860   7.7800540  17.7844300
  67.0894770   8.5224870  17.3699690  66.5885750   8.0227110  18.7083260
  62.1249830   8.8046370  28.6864320  62.0965260   9.2089320  27.8192750
  61.9614800   7.8756730  28.5235920  74.0764650   9.5873470  29.9828490
  74.5524370  10.0656360  30.6617570  74.6971810   9.5190960  29.2573990
  56.2788130   4.6322220  22.3950080  56.3568550   4.7670990  21.4505800
  56.8929810   3.9238110  22.5878200  57.5235760   6.3322410  18.8056260
  57.1163840   6.4737000  17.9509860  58.4148770   6.0482570  18.6027470
  73.4797900   6.7786320  27.1428500  73.6060960   6.5398200  26.2245680
  73.5219280   5.9470860  27.6150580  67.3414640  10.4814320  25.7123310
  67.8559310  10.3922330  26.5145740  66.4983720  10.8274020  26.0051220
  69.3169040  10.7669660  15.1407310  69.1570180  10.4772600  16.0389140
  69.1515750   9.9909790  14.6052540  61.7957420  10.5468190  16.9178930
  61.6199900   9.6303730  16.7046730  60.9413160  10.9055480  17.1576730
  69.0195170   8.2757220  13.7005310  68.3260330   8.2734510  13.0407590
  69.7618030   7.8516540  13.2699480  68.5845100   9.9019930  17.7753800
  69.0402050   9.1209310  18.0892420  68.9237620  10.6126750  18.3194980
  56.3347650   5.6736390  24.9344540  56.4978690   5.2041750  24.1163910
  56.8000100   5.1659950  25.5993380  57.9086630   5.0487820  27.0940350
  57.5241420   4.4081490  27.6923310  58.2198820   5.7523940  27.6635080
  64.0583770   1.8964360  22.5748970  64.4253900   1.4222930  23.3210310
  63.8688830   2.7705930  22.9157310  60.3764930   5.1433990  15.4900030
  59.6027190   4.6031610  15.3298750  61.1059560   4.6240600  15.1517790
  71.1352910   4.1399350  21.2826420  71.8552030   4.6354640  20.8922530
  70.9334730   3.4617240  20.6380290  66.5171710   4.2108410  27.1695420
  66.4509020   3.2904080  26.9153010  65.8876850   4.3083850  27.8840060
  60.4202330   4.8114370  19.1278840  60.9381000   4.0082630  19.0735730
  59.9686350   4.7493510  19.9695670  65.3071830   6.0780650  14.4006140
  65.6487530   6.8222880  13.9049460  64.4784540   6.3911770  14.7630970
  61.1059990   2.2359980  28.9244090  60.8060130   2.3817160  28.0271910
  61.8771230   1.6765270  28.8317480  66.4488440   7.0328980  26.9199220
  66.4632980   6.1009940  26.7018130  65.7413540   7.1188740  27.5588990
  72.6599650   3.6736320  26.2667800  71.9347840   4.2665100  26.0697190
  73.1875110   3.6659860  25.4681170  72.6112760   8.0711060  15.9179960
  71.9688920   7.4166680  16.1923680  72.2243420   8.4766150  15.1420630
  68.1899240   5.3996490  19.7651650  68.5423060   4.8024620  19.1053020
  67.3061570   5.0740720  19.9359900  64.2762520   6.1594180  17.1722060
  64.9633650   6.7063390  17.5529650  63.4894940   6.7034910  17.2071670
  56.4154920   1.7767000  12.6639140  57.2849770   2.0591800  12.9475060
  55.9245240   2.5902870  12.5487950  63.5789730   3.1640210  16.7847420
  64.0352510   3.9745460  17.0107610  63.2277940   2.8463350  17.6165910
  65.8822340   8.6746550  24.0139720  66.5264560   8.8805930  24.6913140
  66.2451780   7.9134950  23.5610570  67.1554420   6.6778900  22.7317170
  67.7976650   5.9772060  22.8449340  67.6803770   7.4577340  22.5514060
  71.0010140   6.9627520  12.4556310  70.7747720   6.2457960  13.0480950
  70.6106340   6.7139960  11.6178060  68.9292040   7.4773800  25.9353230
  69.2648280   8.0640490  26.6131150  68.0092380   7.3466510  26.1651020
  56.7826170  10.9894380  13.2300770  57.1423810  11.5883720  12.5758040
  56.6418510  11.5354270  14.0035800  70.5826390   4.8799460  14.1170470
  70.2948090   5.3412150  14.9048350  71.3778560   4.4197230  14.3854690
  56.7668030   9.2549240  27.7043170  56.8759150   8.3143980  27.5638560
  56.1148590   9.5203990  27.0556900  64.7580620   7.5265130  29.1041290
  64.4377490   6.8074370  29.6486980  64.0838980   8.2020200  29.1777350
  62.7994790   8.3725580  14.0474440  62.7904890   9.1055270  13.4318950
  61.8793150   8.1257160  14.1401400  58.4001430   3.5940470  14.7921200
  57.7929380   4.3339370  14.8016500  58.8750780   3.6839830  13.9659400
  65.7854390   8.4353820  12.7099630  65.8866370   8.2317810  11.7801610
  64.8856130   8.1812100  12.9147410  64.4272500  10.9540140  17.4047300
  64.6814000  10.9161530  16.4826670  63.4784980  10.8273470  17.3975550
  60.4106720   3.5551620  12.5409770  61.1769990   3.4432980  13.1035200
  60.4881410   2.8589590  11.8886540  72.4350660   9.0440870  20.6560070
  72.5598080   9.8672040  21.1283880  73.3016220   8.8331600  20.3084220
  59.9068190  11.1372080  20.3277200  60.6430670  10.5887540  20.5985770
  60.2909110  12.0028090  20.1883190  56.7913670   7.2045650  16.2018710
  55.8653450   7.4466790  16.1924120  57.2570100   8.0319910  16.0803460
  58.9126470  10.3218150  29.5162780  59.7139200  10.6430200  29.9298180
  58.3978290   9.9613730  30.2382690  63.0170500  10.3102390  12.1502770
  63.8099110  10.5991220  11.6984560  62.4974850   9.8794560  11.4715250
  67.7491100   6.4298020  29.4638190  67.1429260   6.4529620  28.7233940
  67.4445210   5.6981060  30.0005440  69.1791470  10.1578310  28.0747600
  70.1313220  10.0736330  28.0247840  69.0319690  10.8220020  28.7481390
  72.0700670   9.5372520  13.5739510  71.7842180   9.1237660  12.7593690
  71.8720220  10.4660230  13.4540030  56.6324280   2.8091610  28.4598830
  57.1363300   2.2298890  29.0315060  55.8931700   3.0931840  28.9975200
  63.5347900   5.5305800  12.0145120  63.4298540   4.9158150  12.7406500
  63.3672120   5.0071690  11.2308130  63.6862220   4.2162600  27.9934350
  62.9207890   4.7847600  27.9089020  63.8678180   3.9238810  27.1002580
  66.7750630   4.5925830  12.6187110  66.2260730   5.0395130  13.2629850
  67.3969890   4.0875080  13.1424780  70.8285570   5.9467930  28.5509370
  71.5695040   6.2843690  28.0476830  70.0658250   6.1159990  27.9979140
  62.4425750   3.5516750  14.5152410  62.8642170   3.3856620  15.3583800
  62.5676590   2.7416980  14.0207550  64.9553390   2.5754360  11.7629510
  65.4759050   1.8603380  11.3970660  65.6021790   3.2140230  12.0630020
  69.5031230   3.9982760  27.0864580  69.9172250   4.1527840  27.9355000
  68.5682230   4.1237980  27.2490360  64.2646460   3.9503240  25.0560510
  64.6834570   4.7935970  24.8836750  63.3455090   4.0875280  24.8267290
  68.9398260   2.2356610  25.0160860  68.4133480   2.7599230  24.4126000
  69.2829600   2.8684000  25.6470590  62.1153880  10.2556250  26.1718240
  61.5774970  10.9802310  25.8526940  62.3687840   9.7786590  25.3815580
  64.9716090  11.4907460  26.4304890  64.8974790  12.3942600  26.7377260
  64.0694930  11.1719360  26.4026960  65.5201420  10.6565970  14.0531250
  66.4152210  10.9950940  14.0750010  65.5519050   9.9345380  13.4255530
  59.1597580   6.0293020  12.2818250  59.5972450   6.5722690  12.9375830
  59.6445310   5.2039970  12.2914590  56.3743380   8.8182050  19.7338510
  56.7046390   7.9503110  19.5017150  56.8034380   9.0240570  20.5643470
  60.9705300   7.1491060  17.3940480  60.6700840   7.0256030  18.2944390
  60.8642790   6.2899650  16.9856210  56.8633590   9.6852640  22.4720140
  56.4264580   9.8653440  23.3044290  57.4311270  10.4427260  22.3301860
  72.4995770   9.1869640  26.7597450  71.8997760   9.2462200  26.0161370
  72.6289670   8.2474620  26.8894300  73.7397220   6.9287460  12.0967160
  72.9090180   6.9964110  12.5674390  73.9169050   7.8191580  11.7934020
  73.1953680   3.6734940  14.6001360  73.9572590   4.2431590  14.7061050
  73.2108050   3.1062140  15.3709670  56.6958020   2.1972870  18.8309020
  56.0406860   1.9284510  18.1868720  57.5335970   2.0877350  18.3811000
  74.2013650   4.5285040  19.4443290  74.5722480   3.7452360  19.0379260
  74.8415580   5.2174140  19.2660590  71.1847410   5.9121620  24.8573610
  70.3707250   6.3418780  25.1199400  71.5921610   6.5240030  24.2442660
  73.2472850   3.9669310  11.7573880  73.5221690   4.8748190  11.6293100
  73.0583590   3.9031840  12.6935870  57.7333950   2.5825440  23.3712360
  58.1006990   2.4952840  24.2508380  57.1644770   1.8191990  23.2719220
  71.2423460  10.6640220  18.3841880  71.8382530  10.3424790  17.7076300
  71.5001610  10.1912040  19.1755150  59.1486030   7.0958130  28.5332510
  59.1055660   6.7251040  29.4146970  59.2797040   8.0335700  28.6734330
  62.8492060   8.6517720  24.1342230  62.6083420   8.9192280  23.2472750
  63.7894700   8.8223450  24.1893090  74.1096220  10.6712100  24.9352870
  73.6154500  11.0680970  24.2180000  73.5009510  10.0461310  25.3290150
  58.9874060  10.0420380  25.6530290  58.3934380   9.9105080  26.3920330
  58.9797900   9.2058520  25.1872390  71.7935670  11.3135520  22.2139610
  71.3338640  12.0651330  21.8397630  71.1648130  10.5941990  22.1554410
  58.6186290   7.4078760  24.6038330  57.8920350   6.7884050  24.5364280
  58.6795440   7.8019370  23.7336410  62.2231390   9.6223760  21.3887740
  62.7396410   9.0111120  20.8636000  62.8728770  10.1252540  21.8798750
  64.9626890  10.5132250  22.2156720  65.2504700  10.2586550  21.3389730
  65.4750110   9.9609610  22.8062290  56.9016290  10.7253150  17.8135090
  56.7338330  10.0923830  18.5116980  56.0350800  10.9312550  17.4629280
  58.5078990   9.4186380  15.2585230  57.9826610   9.7994410  14.5547190
  58.4323570  10.0437150  15.9794940  65.0299250  11.4348350  29.5824920
  65.9566560  11.1992620  29.6260880  65.0149680  12.2620350  29.1010950
  73.2644310  10.9773920  16.5799170  73.4396500  10.2911660  15.9360090
  72.5665880  11.5020970  16.1875840  61.1071960  11.3668760  14.1334480
  61.8390780  11.0828040  13.5858370  61.3665630  11.1282040  15.0233860
  60.2686750   7.4833490  14.1380810  59.6395630   7.9518590  14.6866640
  60.3834580   6.6382710  14.5727000  71.5976810  10.6618210  29.4065960
  72.3902130  10.1667440  29.1991920  71.8909960  11.3408350  30.0141570
  65.8554510   3.3118170   2.1691280  65.0796610   2.8318610   2.4589850
  66.5067440   2.6323820   1.9947440  59.8720340   3.6237980   3.0467040
  59.0405220   3.3686690   3.4463550  60.4801320   3.6948750   3.7824960
  59.8521600   7.6578070   3.2425060  60.1549640   6.7675810   3.0635280
  60.5965190   8.2148290   3.0147310  65.2963500   5.9875360   2.1761440
  65.2271780   5.0465300   2.0150570  66.0583360   6.0776770   2.7484010
  61.8320360   4.4151480   4.6409910  61.4989740   5.0420400   5.2830980
  62.0087040   4.9413360   3.8611580  61.0439460   6.3832280   6.4559090
  61.6613460   7.0583360   6.1743540  60.1832580   6.7920260   6.3646590
  71.9617050   7.8471690   4.3713730  71.2780570   8.5170800   4.3630400
  72.5011340   8.0452340   3.6058590  69.4975790   9.6915820   3.0858910
  69.5102950   9.2878110   2.2181170  68.9451010  10.4663110   2.9820340
  68.8961230   4.5945660   4.4141520  69.3130020   4.3805770   3.5794980
  69.6201050   4.8518450   4.9850140  72.8423330   2.9932880   4.5057760
  72.0141960   3.0625970   4.0307890  73.4373810   3.5787190   4.0373590
  62.4079830   6.2529660   2.4770510  62.1108120   5.6475130   1.7978290
  63.3579650   6.2906970   2.3659870  70.4965440   9.8261530   6.1393610
  70.0196000  10.6333720   5.9466220  69.8127230   9.1739860   6.2919820
  61.4998260   5.9911350   9.1278310  60.6026790   6.2151320   9.3751710
  61.5251130   6.1146290   8.1789710  60.3269480   2.8624670   7.7035680
  60.1877250   3.7347470   8.0723080  59.4450840   2.5197480   7.5583620
  62.1249830   8.8046370   9.9120830  62.0965260   9.2089320   9.0449260
  61.9614800   7.8756730   9.7492430  74.0764650   9.5873470  11.2085000
  74.5524370  10.0656360  11.8874080  74.6971810   9.5190960  10.4830500
  56.2788130   4.6322220   3.6206590  56.3568550   4.7670990   2.6762310
  56.8929810   3.9238110   3.8134710  73.4797900   6.7786320   8.3685010
  73.6060960   6.5398200   7.4502190  73.5219280   5.9470860   8.8407090
  67.3414640  10.4814320   6.9379820  67.8559310  10.3922330   7.7402250
  66.4983720  10.8274020   7.2307730  56.3347650   5.6736390   6.1601050
  56.4978690   5.2041750   5.3420420  56.8000100   5.1659950   6.8249890
  57.9086630   5.0487820   8.3196860  57.5241420   4.4081490   8.9179820
  58.2198820   5.7523940   8.8891590  64.0583770   1.8964360   3.8005480
  64.4253900   1.4222930   4.5466820  63.8688830   2.7705930   4.1413820
  71.1352910   4.1399350   2.5082930  71.8552030   4.6354640   2.1179040
  70.9334730   3.4617240   1.8636800  66.5171710   4.2108410   8.3951930
  66.4509020   3.2904080   8.1409520  65.8876850   4.3083850   9.1096570
  61.1059990   2.2359980  10.1500600  60.8060130   2.3817160   9.2528420
  61.8771230   1.6765270  10.0573990  66.4488440   7.0328980   8.1455730
  66.4632980   6.1009940   7.9274640  65.7413540   7.1188740   8.7845500
  72.6599650   3.6736320   7.4924310  71.9347840   4.2665100   7.2953700
  73.1875110   3.6659860   6.6937680  65.8822340   8.6746550   5.2396230
  66.5264560   8.8805930   5.9169650  66.2451780   7.9134950   4.7867080
  67.1554420   6.6778900   3.9573680  67.7976650   5.9772060   4.0705850
  67.6803770   7.4577340   3.7770570  68.9292040   7.4773800   7.1609740
  69.2648280   8.0640490   7.8387660  68.0092380   7.3466510   7.3907530
  56.7668030   9.2549240   8.9299680  56.8759150   8.3143980   8.7895070
  56.1148590   9.5203990   8.2813410  64.7580620   7.5265130  10.3297800
  64.4377490   6.8074370  10.8743490  64.0838980   8.2020200  10.4033860
  58.9126470  10.3218150  10.7419290  59.7139200  10.6430200  11.1554690
  58.3978290   9.9613730  11.4639200  67.7491100   6.4298020  10.6894700
  67.1429260   6.4529620   9.9490450  67.4445210   5.6981060  11.2261950
  69.1791470  10.1578310   9.3004110  70.1313220  10.0736330   9.2504350
  69.0319690  10.8220020   9.9737900  56.6324280   2.8091610   9.6855340
  57.1363300   2.2298890  10.2571570  55.8931700   3.0931840  10.2231710
  63.6862220   4.2162600   9.2190860  62.9207890   4.7847600   9.1345530
  63.8678180   3.9238810   8.3259090  70.8285570   5.9467930   9.7765880
  71.5695040   6.2843690   9.2733340  70.0658250   6.1159990   9.2235650
  69.5031230   3.9982760   8.3121090  69.9172250   4.1527840   9.1611510
  68.5682230   4.1237980   8.4746870  64.2646460   3.9503240   6.2817020
  64.6834570   4.7935970   6.1093260  63.3455090   4.0875280   6.0523800
  68.9398260   2.2356610   6.2417370  68.4133480   2.7599230   5.6382510
  69.2829600   2.8684000   6.8727100  62.1153880  10.2556250   7.3974750
  61.5774970  10.9802310   7.0783450  62.3687840   9.7786590   6.6072090
  64.9716090  11.4907460   7.6561400  64.8974790  12.3942600   7.9633770
  64.0694930  11.1719360   7.6283470  56.8633590   9.6852640   3.6976650
  56.4264580   9.8653440   4.5300800  57.4311270  10.4427260   3.5558370
  72.4995770   9.1869640   7.9853960  71.8997760   9.2462200   7.2417880
  72.6289670   8.2474620   8.1150810  71.1847410   5.9121620   6.0830120
  70.3707250   6.3418780   6.3455910  71.5921610   6.5240030   5.4699170
  57.7333950   2.5825440   4.5968870  58.1006990   2.4952840   5.4764890
  57.1644770   1.8191990   4.4975730  59.1486030   7.0958130   9.7589020
  59.1055660   6.7251040  10.6403480  59.2797040   8.0335700   9.8990840
  62.8492060   8.6517720   5.3598740  62.6083420   8.9192280   4.4729260
  63.7894700   8.8223450   5.4149600  74.1096220  10.6712100   6.1609380
  73.6154500  11.0680970   5.4436510  73.5009510  10.0461310   6.5546660
  58.9874060  10.0420380   6.8786800  58.3934380   9.9105080   7.6176840
  58.9797900   9.2058520   6.4128900  71.7935670  11.3135520   3.4396120
  71.3338640  12.0651330   3.0654140  71.1648130  10.5941990   3.3810920
  58.6186290   7.4078760   5.8294840  57.8920350   6.7884050   5.7620790
  58.6795440   7.8019370   4.9592920  62.2231390   9.6223760   2.6144250
  62.7396410   9.0111120   2.0892510  62.8728770  10.1252540   3.1055260
  64.9626890  10.5132250   3.4413230  65.2504700  10.2586550   2.5646240
  65.4750110   9.9609610   4.0318800  65.0299250  11.4348350  10.8081430
  65.9566560  11.1992620  10.8517390  65.0149680  12.2620350  10.3267460
  71.5976810  10.6618210  10.6322470  72.3902130  10.1667440  10.4248430
  71.8909960  11.3408350  11.2398080  48.9492980  95.4056600  94.1599460
  48.8687030  94.4911210  93.8891170  48.5357400  95.9023670  93.4539170
  39.5068800  92.4557320  90.7026880  38.6185500  92.7973290  90.6006760
  39.7909990  92.2557640  89.8107710  41.6830190  91.0388820  91.7365260
  41.7896940  91.9392550  92.0434020  40.7722550  90.9906790  91.4459910
  51.3349300  90.1613630  93.2076160  52.1558920  89.6710200  93.2501640
  51.3683380  90.7511290  93.9608000  45.1717240  87.8465980  94.6668900
  45.4792220  87.2912870  93.9504400  44.2417940  87.9810440  94.4841890
  47.5598000  95.9114810  91.4029020  46.6327280  95.8452190  91.6317490
  47.7122820  96.8494940  91.2884260  47.5467080  92.1831810  88.3996180
  46.6070750  92.3445770  88.4848640  47.8650340  92.9017490  87.8532170
  43.1654640  96.4379550  94.1848750  42.7611640  95.7256800  93.6894650
  43.2517760  96.0932790  95.0736790  53.3477130  87.9664730  87.2278060
  53.0349790  88.0591560  88.1277130  54.1089600  88.5445760  87.1775490
  39.8659270  95.3324530  91.6855400  39.7456870  96.0586620  91.0736670
  39.5560160  94.5627440  91.2083310  42.3322930  88.6759600  95.0679070
  41.8891080  89.4569140  94.7363590  42.8907920  88.9989490  95.7750010
  45.4481750  88.2970300  89.9484900  44.8235930  88.2930170  90.6738210
  45.3611870  87.4301260  89.5520870  42.1237150  93.7993170  92.7960320
  41.8978070  93.5830340  93.7006940  41.3429680  94.2321630  92.4506290
  49.3534910  93.8056540  91.3950970  48.7543800  94.5292340  91.2114590
  49.9014520  93.7433320  90.6127420  47.9599780  92.4420080  93.4254250
  48.3529350  92.7592280  92.6122940  48.3216630  91.5631960  93.5398770
  37.1834180  92.9741000  86.8587170  37.1008850  93.9171760  87.0002160
  36.8317240  92.8315910  85.9799520  44.9832310  91.7080030  95.9257520
  44.9868370  91.2669980  95.0762060  45.8783430  92.0297360  96.0329340
  40.8334690  91.5906520  94.8851730  40.4934740  92.0681750  95.6418780
  40.0712010  91.1371640  94.5252830  45.0452460  92.7092110  88.9164280
  45.1665280  92.6678590  89.8650100  44.6600970  93.5716260  88.7611010
  44.0573960  95.0193250  88.3147580  43.4890860  94.5711500  87.6883490
  44.7662960  95.3786030  87.7812730  38.1480770  90.5125500  93.8016400
  37.8627690  90.1481170  94.6395020  38.0859630  89.7805960  93.1879540
  47.8219360  89.4054760  90.5229770  47.0083970  88.9067930  90.4475080
  47.6281310  90.2453010  90.1066120  50.5367750  93.7774410  88.8191930
  51.4247370  94.0891640  88.6443270  50.5072840  92.9046660  88.4272510
  52.8082020  95.0886250  88.2871790  52.7245740  95.5200470  87.4368230
  53.5276210  95.5484600  88.7198610  37.6411430  95.6484450  87.7613100
  38.5106280  95.9309250  88.0449020  37.1501750  96.4620320  87.6461910
  40.7058020  87.3795310  92.3543900  40.5772650  87.3713210  93.3028820
  39.8820040  87.7178400  92.0034910  52.5652760  90.5865680  90.3739610
  51.9365920  90.6911350  89.6597840  52.0704680  90.8062460  91.1633490
  44.5336790  92.8651630  91.7897490  43.8252940  93.3337970  92.2311100
  44.8181270  92.2073640  92.4242680  48.5652220  89.5902290  93.2293280
  48.4420000  89.6088420  92.2802790  49.5136780  89.6381230  93.3491680
  42.7371810  91.1736710  89.1648200  43.5862340  91.6106860  89.0988390
  42.3703080  91.4856970  89.9920260  51.6581590  95.7449470  94.0779770
  50.7171730  95.7599700  94.2527460  51.9725660  94.9585430  94.5240070
  40.3309990  94.8594140  88.3216620  40.4113580  93.9121650  88.4334020
  41.2229740  95.1901020  88.4277280  46.1809900  96.4471810  86.8603470
  46.7015560  95.7320830  86.4944620  46.8278300  97.0857680  87.1603980
  42.5641160  93.4967430  86.5584530  42.3630220  92.6334790  86.9197870
  42.3933210  93.4100790  85.6206130  50.0429470  88.3075660  89.0871410
  50.3231760  87.4643560  89.4430830  49.2695200  88.5398770  89.6010160
  41.3623960  90.5968050  86.5462410  41.6649860  90.6035480  85.6381560
  42.1018550  90.2465910  87.0430070  44.5808890  89.5402670  87.5318610
  44.2330890  88.8626660  86.9521060  44.7821660  89.0792180  88.3462000
  37.9214530  96.0690320  93.9282980  37.2663370  95.8001960  93.2842680
  38.7592480  95.9594800  93.4784960  50.8704970  90.8631610  88.1501470
  51.2889850  90.6762590  87.3098130  50.5641030  90.0110660  88.4604400
  54.3694700  95.7755750  91.8477270  53.9938300  95.0083680  91.4158560
  53.6397820  96.1578450  92.3352200  37.1352610  93.2789250  89.8708310
  36.2316690  93.5419450  89.6959970  37.6193230  93.5500420  89.0908270
  53.6445660  94.0013240  95.1484510  54.1683140  93.5075890  94.5174680
  54.2305080  94.1363600  95.8932080  39.6779820  92.3354790  87.7802690
  40.3871520  91.9138010  87.2949970  38.9619760  92.4030020  87.1486040
  39.3253980  88.3894120  86.8205340  40.0482110  88.9303060  87.1386560
  39.5978500  88.1157540  85.9446880  53.1345630  93.2586590  91.0876920
  53.6304750  93.0257460  91.8725800  52.9361700  92.4198430  90.6714560
  54.5632790  91.8947540  93.6214600  54.4532070  91.7403580  94.5596870
  55.3240380  91.3668480  93.3790010  55.4523060  89.7255460  86.8620740
  56.3772370  89.5936640  86.6539030  55.4298850  89.8048280  87.8157190
  55.5261550  90.4966120  89.4877450  54.7313050  90.4311240  90.0170360
  55.7304830  91.4316760  89.4762800  51.9581480  88.8263000  95.9376280
  52.3989570  88.7708100  95.0897880  51.6889070  89.7421010  96.0086460
  53.8220050  88.4578240  93.9485100  53.7608450  87.5139460  93.8016120
  54.6012080  88.5658330  94.4938560  38.7500820  88.4287380  90.4140910
  39.5080180  88.5416260  89.8404940  38.2877990  89.2656580  90.3684340
  45.2914630  90.5426650  93.4043220  44.4789140  90.1683540  93.0639100
  45.7956270  89.7871730  93.7064410  49.7939610  87.2069100  94.6426290
  50.3968980  87.7789310  95.1174810  49.0532600  87.7708540  94.4200190
  52.9374210  87.6090660  89.9166570  53.1324840  88.5074110  90.1834000
  52.1504080  87.3777740  90.4099520  41.1225970  88.9551430  88.9542880
  41.6518730  88.1681230  88.8250830  41.7554290  89.6342620  89.1878410
  43.3163810  88.6926570  92.0088270  42.6866550  87.9913880  92.1758400
  42.7768950  89.4530700  91.7921430  48.9492980  95.4056600  75.3855970
  48.8687030  94.4911210  75.1147680  48.5357400  95.9023670  74.6795680
  47.0811020  97.1835620  77.2665240  46.3053120  96.7036060  77.5563810
  47.7323950  96.5041270  77.0921400  39.5068800  92.4557320  71.9283390
  38.6185500  92.7973290  71.8263270  39.7909990  92.2557640  71.0364220
  37.4701810  95.0562970  77.8123090  38.0417920  94.2885170  77.8126730
  37.4703350  95.3551730  76.9029700  38.7126680  90.4647330  79.5992020
  38.5329520  89.5673080  79.8794780  38.3106760  91.0119200  80.2738970
  47.5525180  92.6663190  77.5004330  47.9290000  91.7935070  77.3878000
  47.4544690  93.0021890  76.6094770  41.6830190  91.0388820  72.9621770
  41.7896940  91.9392550  73.2690530  40.7722550  90.9906790  72.6716420
  51.3349300  90.1613630  74.4332670  52.1558920  89.6710200  74.4758150
  51.3683380  90.7511290  75.1864510  39.3313350  92.9607830  78.2074360
  40.0123460  93.2246200  78.8261760  39.0161400  92.1208700  78.5412370
  43.5237920  94.0075190  77.2946950  44.0316140  94.5056160  77.9351970
  44.0551160  93.2310390  77.1186310  55.6248850  92.1780380  80.9976300
  54.9201020  92.5662090  80.4791410  55.8906770  92.8730670  81.5997230
  41.8074020  88.6473750  81.5610370  41.8092460  89.1646140  80.7556270
  40.9778330  88.1703930  81.5380300  51.5710780  92.1014010  77.2060210
  50.8666350  92.3898900  77.7863320  51.9322940  92.9114120  76.8459770
  41.4889350  90.3583710  79.5680820  41.8306160  91.2025760  79.2734690
  40.5505160  90.5067450  79.6846160  54.6397700  91.5468800  77.5969420
  53.6922610  91.5807780  77.7284850  54.9647690  92.3607750  77.9818780
  45.1717240  87.8465980  75.8925410  45.4792220  87.2912870  75.1760910
  44.2417940  87.9810440  75.7098400  47.5598000  95.9114810  72.6285530
  46.6327280  95.8452190  72.8574000  47.7122820  96.8494940  72.5140770
  47.5467080  92.1831810  69.6252690  46.6070750  92.3445770  69.7105150
  47.8650340  92.9017490  69.0788680  51.0321850  93.6519650  80.5486590
  50.6193030  94.4773360  80.8026580  50.2997800  93.0664690  80.3562950
  43.1654640  96.4379550  75.4105260  42.7611640  95.7256800  74.9151160
  43.2517760  96.0932790  76.2993300  41.8783260  93.2122760  79.1904300
  42.4297850  93.3218100  78.4157550  42.3926770  93.5860360  79.9059530
  53.3477130  87.9664730  68.4534570  53.0349790  88.0591560  69.3533640
  54.1089600  88.5445760  68.4032000  39.8659270  95.3324530  72.9111910
  39.7456870  96.0586620  72.2993180  39.5560160  94.5627440  72.4339820
  54.5578420  92.7036230  84.4308710  53.9422690  93.2115900  83.9024170
  54.2374840  91.8034560  84.3734650  42.3322930  88.6759600  76.2935580
  41.8891080  89.4569140  75.9620100  42.8907920  88.9989490  77.0006520
  46.6192740  91.5428120  81.8970900  46.1572110  91.7511140  82.7090840
  46.2170850  90.7287470  81.5941570  51.6197250  92.7637070  83.0267560
  50.7690840  92.4642820  83.3476630  51.4599040  93.0079080  82.1151380
  48.7146960  94.2638820  85.1266350  49.0400370  93.4302570  84.7868580
  49.5027290  94.7867340  85.2744680  45.4481750  88.2970300  71.1741410
  44.8235930  88.2930170  71.8994720  45.3611870  87.4301260  70.7777380
  44.3698830  89.2206930  78.1525180  44.6671160  90.1269760  78.0717200
  44.9184390  88.7325710  77.5384750  42.1237150  93.7993170  74.0216830
  41.8978070  93.5830340  74.9263450  41.3429680  94.2321630  73.6762800
  49.3534910  93.8056540  72.6207480  48.7543800  94.5292340  72.4371100
  49.9014520  93.7433320  71.8383930  44.5636360  94.6978750  84.6877100
  44.4679960  93.7573480  84.5377500  45.4068340  94.9193820  84.2925170
  47.9599780  92.4420080  74.6510760  48.3529350  92.7592280  73.8379450
  48.3216630  91.5631960  74.7655280  39.6946900  91.1092420  82.8410880
  39.3010290  91.9567630  83.0483660  39.0065300  90.4718790  83.0319520
  46.2691950  91.1927390  85.9107620  45.5790270  90.9999590  86.5453710
  47.0124250  91.4762030  86.4431920  36.9963950  89.0320880  76.8740960
  36.7077000  89.6023740  77.5865940  37.7409710  88.5525330  77.2372190
  37.1834180  92.9741000  68.0843680  37.1008850  93.9171760  68.2258670
  36.8317240  92.8315910  67.2056030  48.5454920  95.0325830  78.7461540
  47.8136040  95.5412640  79.0951640  48.1479260  94.2155810  78.4450320
  44.9832310  91.7080030  77.1514030  44.9868370  91.2669980  76.3018570
  45.8783430  92.0297360  77.2585850  40.8334690  91.5906520  76.1108240
  40.4934740  92.0681750  76.8675290  40.0712010  91.1371640  75.7509340
  45.0452460  92.7092110  70.1420790  45.1665280  92.6678590  71.0906610
  44.6600970  93.5716260  69.9867520  49.0080830  90.4859510  78.1584480
  49.0253570  90.9368160  79.0026330  48.7596410  89.5865150  78.3717920
  44.0573960  95.0193250  69.5404090  43.4890860  94.5711500  68.9140000
  44.7662960  95.3786030  69.0069240  52.4351580  87.8991690  83.9970860
  52.7597350  87.1681350  84.5228840  52.4708090  87.5805330  83.0951850
  45.2840280  95.7681810  78.8979440  45.6510410  95.2940380  79.6440780
  45.0945340  96.6423380  79.2387780  38.1480770  90.5125500  75.0272910
  37.8627690  90.1481170  75.8651530  38.0859630  89.7805960  74.4136050
  43.0739650  94.8090450  81.2163650  42.7696720  95.6882430  81.4414010
  44.0286110  94.8690240  81.2521090  47.8219360  89.4054760  71.7486280
  47.0083970  88.9067930  71.6731590  47.6281310  90.2453010  71.3322630
  50.5367750  93.7774410  70.0448440  51.4247370  94.0891640  69.8699780
  50.5072840  92.9046660  69.6529020  39.1303380  95.6493190  82.3635010
  38.7718320  96.3147040  82.9508350  38.8357940  94.8176740  82.7347630
  42.3316500  96.1077430  85.2474560  42.0316640  96.2534610  84.3502380
  43.1027740  95.5482720  85.1547950  52.8082020  95.0886250  69.5128300
  52.7245740  95.5200470  68.6624740  53.5276210  95.5484600  69.9455120
  37.6411430  95.6484450  68.9869610  38.5106280  95.9309250  69.2705530
  37.1501750  96.4620320  68.8718420  40.7058020  87.3795310  73.5800410
  40.5772650  87.3713210  74.5285330  39.8820040  87.7178400  73.2291420
  37.7051950  89.1386430  83.0407110  36.9910470  89.3383350  83.6459720
  38.1246990  88.3626000  83.4121910  49.1990730  91.6308740  80.7908560
  49.5671550  90.8103950  81.1188130  48.3388930  91.6910630  81.2064210
  52.5652760  90.5865680  71.5996120  51.9365920  90.6911350  70.8854350
  52.0704680  90.8062460  72.3890000  44.5336790  92.8651630  73.0154000
  43.8252940  93.3337970  73.4567610  44.8181270  92.2073640  73.6499190
  46.1592720  94.2848330  81.0146530  46.6577970  94.7594150  81.6798380
  46.3015670  93.3611850  81.2216560  48.5652220  89.5902290  74.4549790
  48.4420000  89.6088420  73.5059300  49.5136780  89.6381230  74.5748190
  42.7371810  91.1736710  70.3904710  43.5862340  91.6106860  70.3244900
  42.3703080  91.4856970  71.2176770  53.3659580  90.5016290  81.8574920
  52.8633180  91.2421690  82.1968730  54.1816240  90.8900290  81.5411710
  51.6581590  95.7449470  75.3036280  50.7171730  95.7599700  75.4783970
  51.9725660  94.9585430  75.7496580  40.3309990  94.8594140  69.5473130
  40.4113580  93.9121650  69.6590530  41.2229740  95.1901020  69.6533790
  37.8580790  96.6809060  84.7829300  38.3619810  96.1016340  85.3545530
  37.1188210  96.9649290  85.3205670  39.8903870  94.8238650  85.6779370
  39.9309210  94.5252520  86.5864600  40.7449370  95.2246260  85.5186890
  41.8309680  93.4030750  83.6453860  41.3006140  92.9121700  83.0177200
  42.4997750  93.8314950  83.1111790  46.1809900  96.4471810  68.0859980
  46.7015560  95.7320830  67.7201130  46.8278300  97.0857680  68.3860490
  51.2009910  95.2096370  85.4134200  51.7830680  94.4548690  85.3254680
  51.3771680  95.7403810  84.6365680  42.3181980  90.3693120  83.7251150
  42.2238850  89.7513870  83.0002020  41.7379370  91.0959410  83.4981060
  45.0843420  88.9266360  80.7578540  44.6360720  88.9490620  79.9124090
  44.4508620  88.5285380  81.3548840  47.8266870  95.5536870  82.7628820
  47.9463080  94.9578010  83.5023660  48.6860870  95.5906560  82.3430120
  50.1654770  96.1074060  81.3391330  49.6389990  96.6316680  80.7356470
  50.5086110  96.7401450  81.9701060  42.5641160  93.4967430  67.7841040
  42.3630220  92.6334790  68.1454380  42.3933210  93.4100790  66.8462640
  44.5935640  92.0958220  84.0204640  45.1835330  91.7874070  84.7082460
  43.7755880  91.6237970  84.1764540  49.4129070  91.7124030  84.2537660
  48.7244590  91.0505570  84.1887650  50.1335090  91.2662300  84.6986120
  50.0429470  88.3075660  70.3127920  50.3231760  87.4643560  70.6687340
  49.2695200  88.5398770  70.8266670  41.3623960  90.5968050  67.7718920
  41.6649860  90.6035480  66.8638070  42.1018550  90.2465910  68.2686580
  44.5808890  89.5402670  68.7575120  44.2330890  88.8626660  68.1777570
  44.7821660  89.0792180  69.5718510  37.9214530  96.0690320  75.1539490
  37.2663370  95.8001960  74.5099190  38.7592480  95.9594800  74.7041470
  50.8704970  90.8631610  69.3757980  51.2889850  90.6762590  68.5354640
  50.5641030  90.0110660  69.6860910  54.3694700  95.7755750  73.0733780
  53.9938300  95.0083680  72.6415070  53.6397820  96.1578450  73.5608710
  38.9590460  96.4542890  79.6942830  39.3263500  96.3670290  80.5738850
  38.3901280  95.6909440  79.5949690  53.7594320  94.9227270  82.7073300
  53.5280410  94.6940020  81.8071250  54.0198870  95.8426820  82.6618190
  38.5106460  93.3651980  83.6001250  37.6162510  93.3318740  83.9394960
  39.0504010  93.5638770  84.3652500  52.1982390  90.1483700  85.4853000
  53.0752570  90.1567100  85.8687000  52.2103230  89.4114540  84.8745350
  37.1352610  93.2789250  71.0964820  36.2316690  93.5419450  70.9216480
  37.6193230  93.5500420  70.3164780  53.6445660  94.0013240  76.3741020
  54.1683140  93.5075890  75.7431190  54.2305080  94.1363600  77.1188590
  53.8235380  94.0853110  79.8960570  52.8738090  94.0516650  80.0105560
  54.0048390  94.9953220  79.6610340  39.6779820  92.3354790  69.0059200
  40.3871520  91.9138010  68.5206480  38.9619760  92.4030020  68.3742550
  39.3253980  88.3894120  68.0461850  40.0482110  88.9303060  68.3643070
  39.5978500  88.1157540  67.1703390  53.1345630  93.2586590  72.3133430
  53.6304750  93.0257460  73.0982310  52.9361700  92.4198430  71.8971070
  39.0146170  87.6400310  77.9484470  39.6622360  87.0897690  77.5079630
  39.4348010  87.8943460  78.7700280  54.5632790  91.8947540  74.8471110
  54.4532070  91.7403580  75.7853380  55.3240380  91.3668480  74.6046520
  52.9098510  87.8341670  81.3054110  53.5470730  88.4475810  81.6713300
  53.0573400  87.8702330  80.3603340  55.4523060  89.7255460  68.0877250
  56.3772370  89.5936640  67.8795540  55.4298850  89.8048280  69.0413700
  55.5261550  90.4966120  70.7133960  54.7313050  90.4311240  71.2426870
  55.7304830  91.4316760  70.7019310  38.7678170  87.7955980  80.6909790
  38.4192990  88.2519800  81.4567970  38.4365870  86.9013110  80.7732220
  46.2802990  88.9867860  84.2129210  46.2191880  89.5789690  84.9624620
  47.2203370  88.8793820  84.0679470  48.9177550  88.6437920  83.8521500
  49.5317960  88.9617210  83.1902580  49.4627110  88.1586510  84.4717360
  39.4398810  87.3232180  83.9660560  39.9881800  87.1420230  83.2026670
  39.5054120  86.5326290  84.5016870  49.6585590  87.2070060  80.1790790
  48.7845430  87.5405170  79.9763720  49.5496340  86.7343240  81.0042660
  50.5657570  89.4140930  81.5632510  50.2370930  88.5992690  81.1834240
  51.5139870  89.3710740  81.4398200  47.4060410  88.1239900  79.1183700
  46.6232200  88.5985400  79.3980460  47.1123340  87.2194730  79.0096880
  51.9581480  88.8263000  77.1632790  52.3989570  88.7708100  76.3154390
  51.6889070  89.7421010  77.2342970  53.8220050  88.4578240  75.1741610
  53.7608450  87.5139460  75.0272630  54.6012080  88.5658330  75.7195070
  38.7500820  88.4287380  71.6397420  39.5080180  88.5416260  71.0661450
  38.2877990  89.2656580  71.5940850  45.2914630  90.5426650  74.6299730
  44.4789140  90.1683540  74.2895610  45.7956270  89.7871730  74.9320920
  49.7939610  87.2069100  75.8682800  50.3968980  87.7789310  76.3431320
  49.0532600  87.7708540  75.6456700  52.9374210  87.6090660  71.1423080
  53.1324840  88.5074110  71.4090510  52.1504080  87.3777740  71.6356030
  41.1225970  88.9551430  70.1799390  41.6518730  88.1681230  70.0507340
  41.7554290  89.6342620  70.4134920  43.3163810  88.6926570  73.2344780
  42.6866550  87.9913880  73.4014910  42.7768950  89.4530700  73.0177940
  43.4419370  87.9710550  85.6697270  43.1603640  88.4744150  84.9058090
  43.8239070  87.1732300  85.3039400  50.0434830  87.3864130  86.2477740
  49.9300280  87.7058740  87.1429260  50.8604570  87.7876640  85.9515020
  48.9492980  95.4056600  56.6112480  48.8687030  94.4911210  56.3404190
  48.5357400  95.9023670  55.9052190  47.0811020  97.1835620  58.4921750
  46.3053120  96.7036060  58.7820320  47.7323950  96.5041270  58.3177910
  39.5068800  92.4557320  53.1539900  38.6185500  92.7973290  53.0519780
  39.7909990  92.2557640  52.2620730  37.4701810  95.0562970  59.0379600
  38.0417920  94.2885170  59.0383240  37.4703350  95.3551730  58.1286210
  38.7126680  90.4647330  60.8248530  38.5329520  89.5673080  61.1051290
  38.3106760  91.0119200  61.4995480  47.5525180  92.6663190  58.7260840
  47.9290000  91.7935070  58.6134510  47.4544690  93.0021890  57.8351280
  41.6830190  91.0388820  54.1878280  41.7896940  91.9392550  54.4947040
  40.7722550  90.9906790  53.8972930  51.3349300  90.1613630  55.6589180
  52.1558920  89.6710200  55.7014660  51.3683380  90.7511290  56.4121020
  39.3313350  92.9607830  59.4330870  40.0123460  93.2246200  60.0518270
  39.0161400  92.1208700  59.7668880  43.5237920  94.0075190  58.5203460
  44.0316140  94.5056160  59.1608480  44.0551160  93.2310390  58.3442820
  55.6248850  92.1780380  62.2232810  54.9201020  92.5662090  61.7047920
  55.8906770  92.8730670  62.8253740  41.8074020  88.6473750  62.7866880
  41.8092460  89.1646140  61.9812780  40.9778330  88.1703930  62.7636810
  51.5710780  92.1014010  58.4316720  50.8666350  92.3898900  59.0119830
  51.9322940  92.9114120  58.0716280  41.4889350  90.3583710  60.7937330
  41.8306160  91.2025760  60.4991200  40.5505160  90.5067450  60.9102670
  54.6397700  91.5468800  58.8225930  53.6922610  91.5807780  58.9541360
  54.9647690  92.3607750  59.2075290  45.1717240  87.8465980  57.1181920
  45.4792220  87.2912870  56.4017420  44.2417940  87.9810440  56.9354910
  47.5598000  95.9114810  53.8542040  46.6327280  95.8452190  54.0830510
  47.7122820  96.8494940  53.7397280  47.5467080  92.1831810  50.8509200
  46.6070750  92.3445770  50.9361660  47.8650340  92.9017490  50.3045190
  51.0321850  93.6519650  61.7743100  50.6193030  94.4773360  62.0283090
  50.2997800  93.0664690  61.5819460  43.1654640  96.4379550  56.6361770
  42.7611640  95.7256800  56.1407670  43.2517760  96.0932790  57.5249810
  41.8783260  93.2122760  60.4160810  42.4297850  93.3218100  59.6414060
  42.3926770  93.5860360  61.1316040  53.3477130  87.9664730  49.6791080
  53.0349790  88.0591560  50.5790150  54.1089600  88.5445760  49.6288510
  39.8659270  95.3324530  54.1368420  39.7456870  96.0586620  53.5249690
  39.5560160  94.5627440  53.6596330  54.5578420  92.7036230  65.6565220
  53.9422690  93.2115900  65.1280680  54.2374840  91.8034560  65.5991160
  42.3322930  88.6759600  57.5192090  41.8891080  89.4569140  57.1876610
  42.8907920  88.9989490  58.2263030  46.6192740  91.5428120  63.1227410
  46.1572110  91.7511140  63.9347350  46.2170850  90.7287470  62.8198080
  51.6197250  92.7637070  64.2524070  50.7690840  92.4642820  64.5733140
  51.4599040  93.0079080  63.3407890  48.7146960  94.2638820  66.3522860
  49.0400370  93.4302570  66.0125090  49.5027290  94.7867340  66.5001190
  45.4481750  88.2970300  52.3997920  44.8235930  88.2930170  53.1251230
  45.3611870  87.4301260  52.0033890  44.3698830  89.2206930  59.3781690
  44.6671160  90.1269760  59.2973710  44.9184390  88.7325710  58.7641260
  42.1237150  93.7993170  55.2473340  41.8978070  93.5830340  56.1519960
  41.3429680  94.2321630  54.9019310  49.3534910  93.8056540  53.8463990
  48.7543800  94.5292340  53.6627610  49.9014520  93.7433320  53.0640440
  44.5636360  94.6978750  65.9133610  44.4679960  93.7573480  65.7634010
  45.4068340  94.9193820  65.5181680  47.9599780  92.4420080  55.8767270
  48.3529350  92.7592280  55.0635960  48.3216630  91.5631960  55.9911790
  39.6946900  91.1092420  64.0667390  39.3010290  91.9567630  64.2740170
  39.0065300  90.4718790  64.2576030  46.2691950  91.1927390  67.1364130
  45.5790270  90.9999590  67.7710220  47.0124250  91.4762030  67.6688430
  36.9963950  89.0320880  58.0997470  36.7077000  89.6023740  58.8122450
  37.7409710  88.5525330  58.4628700  37.1834180  92.9741000  49.3100190
  37.1008850  93.9171760  49.4515180  36.8317240  92.8315910  48.4312540
  48.5454920  95.0325830  59.9718050  47.8136040  95.5412640  60.3208150
  48.1479260  94.2155810  59.6706830  44.9832310  91.7080030  58.3770540
  44.9868370  91.2669980  57.5275080  45.8783430  92.0297360  58.4842360
  40.8334690  91.5906520  57.3364750  40.4934740  92.0681750  58.0931800
  40.0712010  91.1371640  56.9765850  45.0452460  92.7092110  51.3677300
  45.1665280  92.6678590  52.3163120  44.6600970  93.5716260  51.2124030
  49.0080830  90.4859510  59.3840990  49.0253570  90.9368160  60.2282840
  48.7596410  89.5865150  59.5974430  44.0573960  95.0193250  50.7660600
  43.4890860  94.5711500  50.1396510  44.7662960  95.3786030  50.2325750
  52.4351580  87.8991690  65.2227370  52.7597350  87.1681350  65.7485350
  52.4708090  87.5805330  64.3208360  45.2840280  95.7681810  60.1235950
  45.6510410  95.2940380  60.8697290  45.0945340  96.6423380  60.4644290
  38.1480770  90.5125500  56.2529420  37.8627690  90.1481170  57.0908040
  38.0859630  89.7805960  55.6392560  43.0739650  94.8090450  62.4420160
  42.7696720  95.6882430  62.6670520  44.0286110  94.8690240  62.4777600
  47.8219360  89.4054760  52.9742790  47.0083970  88.9067930  52.8988100
  47.6281310  90.2453010  52.5579140  50.5367750  93.7774410  51.2704950
  51.4247370  94.0891640  51.0956290  50.5072840  92.9046660  50.8785530
  39.1303380  95.6493190  63.5891520  38.7718320  96.3147040  64.1764860
  38.8357940  94.8176740  63.9604140  42.3316500  96.1077430  66.4731070
  42.0316640  96.2534610  65.5758890  43.1027740  95.5482720  66.3804460
  52.8082020  95.0886250  50.7384810  52.7245740  95.5200470  49.8881250
  53.5276210  95.5484600  51.1711630  37.6411430  95.6484450  50.2126120
  38.5106280  95.9309250  50.4962040  37.1501750  96.4620320  50.0974930
  40.7058020  87.3795310  54.8056920  40.5772650  87.3713210  55.7541840
  39.8820040  87.7178400  54.4547930  37.7051950  89.1386430  64.2663620
  36.9910470  89.3383350  64.8716230  38.1246990  88.3626000  64.6378420
  49.1990730  91.6308740  62.0165070  49.5671550  90.8103950  62.3444640
  48.3388930  91.6910630  62.4320720  52.5652760  90.5865680  52.8252630
  51.9365920  90.6911350  52.1110860  52.0704680  90.8062460  53.6146510
  44.5336790  92.8651630  54.2410510  43.8252940  93.3337970  54.6824120
  44.8181270  92.2073640  54.8755700  46.1592720  94.2848330  62.2403040
  46.6577970  94.7594150  62.9054890  46.3015670  93.3611850  62.4473070
  48.5652220  89.5902290  55.6806300  48.4420000  89.6088420  54.7315810
  49.5136780  89.6381230  55.8004700  42.7371810  91.1736710  51.6161220
  43.5862340  91.6106860  51.5501410  42.3703080  91.4856970  52.4433280
  53.3659580  90.5016290  63.0831430  52.8633180  91.2421690  63.4225240
  54.1816240  90.8900290  62.7668220  51.6581590  95.7449470  56.5292790
  50.7171730  95.7599700  56.7040480  51.9725660  94.9585430  56.9753090
  40.3309990  94.8594140  50.7729640  40.4113580  93.9121650  50.8847040
  41.2229740  95.1901020  50.8790300  37.8580790  96.6809060  66.0085810
  38.3619810  96.1016340  66.5802040  37.1188210  96.9649290  66.5462180
  39.8903870  94.8238650  66.9035880  39.9309210  94.5252520  67.8121110
  40.7449370  95.2246260  66.7443400  41.8309680  93.4030750  64.8710370
  41.3006140  92.9121700  64.2433710  42.4997750  93.8314950  64.3368300
  46.1809900  96.4471810  49.3116490  46.7015560  95.7320830  48.9457640
  46.8278300  97.0857680  49.6117000  51.2009910  95.2096370  66.6390710
  51.7830680  94.4548690  66.5511190  51.3771680  95.7403810  65.8622190
  42.3181980  90.3693120  64.9507660  42.2238850  89.7513870  64.2258530
  41.7379370  91.0959410  64.7237570  45.0843420  88.9266360  61.9835050
  44.6360720  88.9490620  61.1380600  44.4508620  88.5285380  62.5805350
  47.8266870  95.5536870  63.9885330  47.9463080  94.9578010  64.7280170
  48.6860870  95.5906560  63.5686630  50.1654770  96.1074060  62.5647840
  49.6389990  96.6316680  61.9612980  50.5086110  96.7401450  63.1957570
  42.5641160  93.4967430  49.0097550  42.3630220  92.6334790  49.3710890
  42.3933210  93.4100790  48.0719150  44.5935640  92.0958220  65.2461150
  45.1835330  91.7874070  65.9338970  43.7755880  91.6237970  65.4021050
  49.4129070  91.7124030  65.4794170  48.7244590  91.0505570  65.4144160
  50.1335090  91.2662300  65.9242630  50.0429470  88.3075660  51.5384430
  50.3231760  87.4643560  51.8943850  49.2695200  88.5398770  52.0523180
  41.3623960  90.5968050  48.9975430  41.6649860  90.6035480  48.0894580
  42.1018550  90.2465910  49.4943090  44.5808890  89.5402670  49.9831630
  44.2330890  88.8626660  49.4034080  44.7821660  89.0792180  50.7975020
  37.9214530  96.0690320  56.3796000  37.2663370  95.8001960  55.7355700
  38.7592480  95.9594800  55.9297980  50.8704970  90.8631610  50.6014490
  51.2889850  90.6762590  49.7611150  50.5641030  90.0110660  50.9117420
  54.3694700  95.7755750  54.2990290  53.9938300  95.0083680  53.8671580
  53.6397820  96.1578450  54.7865220  38.9590460  96.4542890  60.9199340
  39.3263500  96.3670290  61.7995360  38.3901280  95.6909440  60.8206200
  53.7594320  94.9227270  63.9329810  53.5280410  94.6940020  63.0327760
  54.0198870  95.8426820  63.8874700  38.5106460  93.3651980  64.8257760
  37.6162510  93.3318740  65.1651470  39.0504010  93.5638770  65.5909010
  52.1982390  90.1483700  66.7109510  53.0752570  90.1567100  67.0943510
  52.2103230  89.4114540  66.1001860  37.1352610  93.2789250  52.3221330
  36.2316690  93.5419450  52.1472990  37.6193230  93.5500420  51.5421290
  53.6445660  94.0013240  57.5997530  54.1683140  93.5075890  56.9687700
  54.2305080  94.1363600  58.3445100  53.8235380  94.0853110  61.1217080
  52.8738090  94.0516650  61.2362070  54.0048390  94.9953220  60.8866850
  39.6779820  92.3354790  50.2315710  40.3871520  91.9138010  49.7462990
  38.9619760  92.4030020  49.5999060  39.3253980  88.3894120  49.2718360
  40.0482110  88.9303060  49.5899580  39.5978500  88.1157540  48.3959900
  53.1345630  93.2586590  53.5389940  53.6304750  93.0257460  54.3238820
  52.9361700  92.4198430  53.1227580  39.0146170  87.6400310  59.1740980
  39.6622360  87.0897690  58.7336140  39.4348010  87.8943460  59.9956790
  54.5632790  91.8947540  56.0727620  54.4532070  91.7403580  57.0109890
  55.3240380  91.3668480  55.8303030  52.9098510  87.8341670  62.5310620
  53.5470730  88.4475810  62.8969810  53.0573400  87.8702330  61.5859850
  55.4523060  89.7255460  49.3133760  56.3772370  89.5936640  49.1052050
  55.4298850  89.8048280  50.2670210  55.5261550  90.4966120  51.9390470
  54.7313050  90.4311240  52.4683380  55.7304830  91.4316760  51.9275820
  38.7678170  87.7955980  61.9166300  38.4192990  88.2519800  62.6824480
  38.4365870  86.9013110  61.9988730  46.2802990  88.9867860  65.4385720
  46.2191880  89.5789690  66.1881130  47.2203370  88.8793820  65.2935980
  48.9177550  88.6437920  65.0778010  49.5317960  88.9617210  64.4159090
  49.4627110  88.1586510  65.6973870  39.4398810  87.3232180  65.1917070
  39.9881800  87.1420230  64.4283180  39.5054120  86.5326290  65.7273380
  49.6585590  87.2070060  61.4047300  48.7845430  87.5405170  61.2020230
  49.5496340  86.7343240  62.2299170  50.5657570  89.4140930  62.7889020
  50.2370930  88.5992690  62.4090750  51.5139870  89.3710740  62.6654710
  47.4060410  88.1239900  60.3440210  46.6232200  88.5985400  60.6236970
  47.1123340  87.2194730  60.2353390  51.9581480  88.8263000  58.3889300
  52.3989570  88.7708100  57.5410900  51.6889070  89.7421010  58.4599480
  53.8220050  88.4578240  56.3998120  53.7608450  87.5139460  56.2529140
  54.6012080  88.5658330  56.9451580  38.7500820  88.4287380  52.8653930
  39.5080180  88.5416260  52.2917960  38.2877990  89.2656580  52.8197360
  45.2914630  90.5426650  55.8556240  44.4789140  90.1683540  55.5152120
  45.7956270  89.7871730  56.1577430  49.7939610  87.2069100  57.0939310
  50.3968980  87.7789310  57.5687830  49.0532600  87.7708540  56.8713210
  52.9374210  87.6090660  52.3679590  53.1324840  88.5074110  52.6347020
  52.1504080  87.3777740  52.8612540  41.1225970  88.9551430  51.4055900
  41.6518730  88.1681230  51.2763850  41.7554290  89.6342620  51.6391430
  43.3163810  88.6926570  54.4601290  42.6866550  87.9913880  54.6271420
  42.7768950  89.4530700  54.2434450  43.4419370  87.9710550  66.8953780
  43.1603640  88.4744150  66.1314600  43.8239070  87.1732300  66.5295910
  50.0434830  87.3864130  67.4734250  49.9300280  87.7058740  68.3685770
  50.8604570  87.7876640  67.1771530  48.9492980  95.4056600  37.8368990
  48.8687030  94.4911210  37.5660700  48.5357400  95.9023670  37.1308700
  47.0811020  97.1835620  39.7178260  46.3053120  96.7036060  40.0076830
  47.7323950  96.5041270  39.5434420  39.5068800  92.4557320  34.3796410
  38.6185500  92.7973290  34.2776290  39.7909990  92.2557640  33.4877240
  37.4701810  95.0562970  40.2636110  38.0417920  94.2885170  40.2639750
  37.4703350  95.3551730  39.3542720  38.7126680  90.4647330  42.0505040
  38.5329520  89.5673080  42.3307800  38.3106760  91.0119200  42.7251990
  47.5525180  92.6663190  39.9517350  47.9290000  91.7935070  39.8391020
  47.4544690  93.0021890  39.0607790  41.6830190  91.0388820  35.4134790
  41.7896940  91.9392550  35.7203550  40.7722550  90.9906790  35.1229440
  51.3349300  90.1613630  36.8845690  52.1558920  89.6710200  36.9271170
  51.3683380  90.7511290  37.6377530  39.3313350  92.9607830  40.6587380
  40.0123460  93.2246200  41.2774780  39.0161400  92.1208700  40.9925390
  43.5237920  94.0075190  39.7459970  44.0316140  94.5056160  40.3864990
  44.0551160  93.2310390  39.5699330  55.6248850  92.1780380  43.4489320
  54.9201020  92.5662090  42.9304430  55.8906770  92.8730670  44.0510250
  41.8074020  88.6473750  44.0123390  41.8092460  89.1646140  43.2069290
  40.9778330  88.1703930  43.9893320  51.5710780  92.1014010  39.6573230
  50.8666350  92.3898900  40.2376340  51.9322940  92.9114120  39.2972790
  41.4889350  90.3583710  42.0193840  41.8306160  91.2025760  41.7247710
  40.5505160  90.5067450  42.1359180  54.6397700  91.5468800  40.0482440
  53.6922610  91.5807780  40.1797870  54.9647690  92.3607750  40.4331800
  45.1717240  87.8465980  38.3438430  45.4792220  87.2912870  37.6273930
  44.2417940  87.9810440  38.1611420  47.5598000  95.9114810  35.0798550
  46.6327280  95.8452190  35.3087020  47.7122820  96.8494940  34.9653790
  47.5467080  92.1831810  32.0765710  46.6070750  92.3445770  32.1618170
  47.8650340  92.9017490  31.5301700  51.0321850  93.6519650  42.9999610
  50.6193030  94.4773360  43.2539600  50.2997800  93.0664690  42.8075970
  43.1654640  96.4379550  37.8618280  42.7611640  95.7256800  37.3664180
  43.2517760  96.0932790  38.7506320  41.8783260  93.2122760  41.6417320
  42.4297850  93.3218100  40.8670570  42.3926770  93.5860360  42.3572550
  53.3477130  87.9664730  30.9047590  53.0349790  88.0591560  31.8046660
  54.1089600  88.5445760  30.8545020  39.8659270  95.3324530  35.3624930
  39.7456870  96.0586620  34.7506200  39.5560160  94.5627440  34.8852840
  54.5578420  92.7036230  46.8821730  53.9422690  93.2115900  46.3537190
  54.2374840  91.8034560  46.8247670  42.3322930  88.6759600  38.7448600
  41.8891080  89.4569140  38.4133120  42.8907920  88.9989490  39.4519540
  46.6192740  91.5428120  44.3483920  46.1572110  91.7511140  45.1603860
  46.2170850  90.7287470  44.0454590  51.6197250  92.7637070  45.4780580
  50.7690840  92.4642820  45.7989650  51.4599040  93.0079080  44.5664400
  48.7146960  94.2638820  47.5779370  49.0400370  93.4302570  47.2381600
  49.5027290  94.7867340  47.7257700  45.4481750  88.2970300  33.6254430
  44.8235930  88.2930170  34.3507740  45.3611870  87.4301260  33.2290400
  44.3698830  89.2206930  40.6038200  44.6671160  90.1269760  40.5230220
  44.9184390  88.7325710  39.9897770  42.1237150  93.7993170  36.4729850
  41.8978070  93.5830340  37.3776470  41.3429680  94.2321630  36.1275820
  49.3534910  93.8056540  35.0720500  48.7543800  94.5292340  34.8884120
  49.9014520  93.7433320  34.2896950  44.5636360  94.6978750  47.1390120
  44.4679960  93.7573480  46.9890520  45.4068340  94.9193820  46.7438190
  47.9599780  92.4420080  37.1023780  48.3529350  92.7592280  36.2892470
  48.3216630  91.5631960  37.2168300  39.6946900  91.1092420  45.2923900
  39.3010290  91.9567630  45.4996680  39.0065300  90.4718790  45.4832540
  46.2691950  91.1927390  48.3620640  45.5790270  90.9999590  48.9966730
  47.0124250  91.4762030  48.8944940  36.9963950  89.0320880  39.3253980
  36.7077000  89.6023740  40.0378960  37.7409710  88.5525330  39.6885210
  37.1834180  92.9741000  30.5356700  37.1008850  93.9171760  30.6771690
  36.8317240  92.8315910  29.6569050  48.5454920  95.0325830  41.1974560
  47.8136040  95.5412640  41.5464660  48.1479260  94.2155810  40.8963340
  44.9832310  91.7080030  39.6027050  44.9868370  91.2669980  38.7531590
  45.8783430  92.0297360  39.7098870  40.8334690  91.5906520  38.5621260
  40.4934740  92.0681750  39.3188310  40.0712010  91.1371640  38.2022360
  45.0452460  92.7092110  32.5933810  45.1665280  92.6678590  33.5419630
  44.6600970  93.5716260  32.4380540  49.0080830  90.4859510  40.6097500
  49.0253570  90.9368160  41.4539350  48.7596410  89.5865150  40.8230940
  44.0573960  95.0193250  31.9917110  43.4890860  94.5711500  31.3653020
  44.7662960  95.3786030  31.4582260  52.4351580  87.8991690  46.4483880
  52.7597350  87.1681350  46.9741860  52.4708090  87.5805330  45.5464870
  45.2840280  95.7681810  41.3492460  45.6510410  95.2940380  42.0953800
  45.0945340  96.6423380  41.6900800  38.1480770  90.5125500  37.4785930
  37.8627690  90.1481170  38.3164550  38.0859630  89.7805960  36.8649070
  43.0739650  94.8090450  43.6676670  42.7696720  95.6882430  43.8927030
  44.0286110  94.8690240  43.7034110  47.8219360  89.4054760  34.1999300
  47.0083970  88.9067930  34.1244610  47.6281310  90.2453010  33.7835650
  50.5367750  93.7774410  32.4961460  51.4247370  94.0891640  32.3212800
  50.5072840  92.9046660  32.1042040  39.1303380  95.6493190  44.8148030
  38.7718320  96.3147040  45.4021370  38.8357940  94.8176740  45.1860650
  42.3316500  96.1077430  47.6987580  42.0316640  96.2534610  46.8015400
  43.1027740  95.5482720  47.6060970  52.8082020  95.0886250  31.9641320
  52.7245740  95.5200470  31.1137760  53.5276210  95.5484600  32.3968140
  37.6411430  95.6484450  31.4382630  38.5106280  95.9309250  31.7218550
  37.1501750  96.4620320  31.3231440  40.7058020  87.3795310  36.0313430
  40.5772650  87.3713210  36.9798350  39.8820040  87.7178400  35.6804440
  37.7051950  89.1386430  45.4920130  36.9910470  89.3383350  46.0972740
  38.1246990  88.3626000  45.8634930  49.1990730  91.6308740  43.2421580
  49.5671550  90.8103950  43.5701150  48.3388930  91.6910630  43.6577230
  52.5652760  90.5865680  34.0509140  51.9365920  90.6911350  33.3367370
  52.0704680  90.8062460  34.8403020  44.5336790  92.8651630  35.4667020
  43.8252940  93.3337970  35.9080630  44.8181270  92.2073640  36.1012210
  46.1592720  94.2848330  43.4659550  46.6577970  94.7594150  44.1311400
  46.3015670  93.3611850  43.6729580  48.5652220  89.5902290  36.9062810
  48.4420000  89.6088420  35.9572320  49.5136780  89.6381230  37.0261210
  42.7371810  91.1736710  32.8417730  43.5862340  91.6106860  32.7757920
  42.3703080  91.4856970  33.6689790  53.3659580  90.5016290  44.3087940
  52.8633180  91.2421690  44.6481750  54.1816240  90.8900290  43.9924730
  51.6581590  95.7449470  37.7549300  50.7171730  95.7599700  37.9296990
  51.9725660  94.9585430  38.2009600  40.3309990  94.8594140  31.9986150
  40.4113580  93.9121650  32.1103550  41.2229740  95.1901020  32.1046810
  37.8580790  96.6809060  47.2342320  38.3619810  96.1016340  47.8058550
  37.1188210  96.9649290  47.7718690  39.8903870  94.8238650  48.1292390
  39.9309210  94.5252520  49.0377620  40.7449370  95.2246260  47.9699910
  41.8309680  93.4030750  46.0966880  41.3006140  92.9121700  45.4690220
  42.4997750  93.8314950  45.5624810  46.1809900  96.4471810  30.5373000
  46.7015560  95.7320830  30.1714150  46.8278300  97.0857680  30.8373510
  51.2009910  95.2096370  47.8647220  51.7830680  94.4548690  47.7767700
  51.3771680  95.7403810  47.0878700  42.3181980  90.3693120  46.1764170
  42.2238850  89.7513870  45.4515040  41.7379370  91.0959410  45.9494080
  45.0843420  88.9266360  43.2091560  44.6360720  88.9490620  42.3637110
  44.4508620  88.5285380  43.8061860  47.8266870  95.5536870  45.2141840
  47.9463080  94.9578010  45.9536680  48.6860870  95.5906560  44.7943140
  50.1654770  96.1074060  43.7904350  49.6389990  96.6316680  43.1869490
  50.5086110  96.7401450  44.4214080  42.5641160  93.4967430  30.2354060
  42.3630220  92.6334790  30.5967400  42.3933210  93.4100790  29.2975660
  44.5935640  92.0958220  46.4717660  45.1835330  91.7874070  47.1595480
  43.7755880  91.6237970  46.6277560  49.4129070  91.7124030  46.7050680
  48.7244590  91.0505570  46.6400670  50.1335090  91.2662300  47.1499140
  50.0429470  88.3075660  32.7640940  50.3231760  87.4643560  33.1200360
  49.2695200  88.5398770  33.2779690  41.3623960  90.5968050  30.2231940
  41.6649860  90.6035480  29.3151090  42.1018550  90.2465910  30.7199600
  44.5808890  89.5402670  31.2088140  44.2330890  88.8626660  30.6290590
  44.7821660  89.0792180  32.0231530  37.9214530  96.0690320  37.6052510
  37.2663370  95.8001960  36.9612210  38.7592480  95.9594800  37.1554490
  50.8704970  90.8631610  31.8271000  51.2889850  90.6762590  30.9867660
  50.5641030  90.0110660  32.1373930  54.3694700  95.7755750  35.5246800
  53.9938300  95.0083680  35.0928090  53.6397820  96.1578450  36.0121730
  38.9590460  96.4542890  42.1455850  39.3263500  96.3670290  43.0251870
  38.3901280  95.6909440  42.0462710  53.7594320  94.9227270  45.1586320
  53.5280410  94.6940020  44.2584270  54.0198870  95.8426820  45.1131210
  38.5106460  93.3651980  46.0514270  37.6162510  93.3318740  46.3907980
  39.0504010  93.5638770  46.8165520  52.1982390  90.1483700  47.9366020
  53.0752570  90.1567100  48.3200020  52.2103230  89.4114540  47.3258370
  37.1352610  93.2789250  33.5477840  36.2316690  93.5419450  33.3729500
  37.6193230  93.5500420  32.7677800  53.6445660  94.0013240  38.8254040
  54.1683140  93.5075890  38.1944210  54.2305080  94.1363600  39.5701610
  53.8235380  94.0853110  42.3473590  52.8738090  94.0516650  42.4618580
  54.0048390  94.9953220  42.1123360  39.6779820  92.3354790  31.4572220
  40.3871520  91.9138010  30.9719500  38.9619760  92.4030020  30.8255570
  39.3253980  88.3894120  30.4974870  40.0482110  88.9303060  30.8156090
  39.5978500  88.1157540  29.6216410  53.1345630  93.2586590  34.7646450
  53.6304750  93.0257460  35.5495330  52.9361700  92.4198430  34.3484090
  39.0146170  87.6400310  40.3997490  39.6622360  87.0897690  39.9592650
  39.4348010  87.8943460  41.2213300  54.5632790  91.8947540  37.2984130
  54.4532070  91.7403580  38.2366400  55.3240380  91.3668480  37.0559540
  52.9098510  87.8341670  43.7567130  53.5470730  88.4475810  44.1226320
  53.0573400  87.8702330  42.8116360  55.4523060  89.7255460  30.5390270
  56.3772370  89.5936640  30.3308560  55.4298850  89.8048280  31.4926720
  55.5261550  90.4966120  33.1646980  54.7313050  90.4311240  33.6939890
  55.7304830  91.4316760  33.1532330  38.7678170  87.7955980  43.1422810
  38.4192990  88.2519800  43.9080990  38.4365870  86.9013110  43.2245240
  46.2802990  88.9867860  46.6642230  46.2191880  89.5789690  47.4137640
  47.2203370  88.8793820  46.5192490  48.9177550  88.6437920  46.3034520
  49.5317960  88.9617210  45.6415600  49.4627110  88.1586510  46.9230380
  39.4398810  87.3232180  46.4173580  39.9881800  87.1420230  45.6539690
  39.5054120  86.5326290  46.9529890  49.6585590  87.2070060  42.6303810
  48.7845430  87.5405170  42.4276740  49.5496340  86.7343240  43.4555680
  50.5657570  89.4140930  44.0145530  50.2370930  88.5992690  43.6347260
  51.5139870  89.3710740  43.8911220  47.4060410  88.1239900  41.5696720
  46.6232200  88.5985400  41.8493480  47.1123340  87.2194730  41.4609900
  51.9581480  88.8263000  39.6145810  52.3989570  88.7708100  38.7667410
  51.6889070  89.7421010  39.6855990  53.8220050  88.4578240  37.6254630
  53.7608450  87.5139460  37.4785650  54.6012080  88.5658330  38.1708090
  38.7500820  88.4287380  34.0910440  39.5080180  88.5416260  33.5174470
  38.2877990  89.2656580  34.0453870  45.2914630  90.5426650  37.0812750
  44.4789140  90.1683540  36.7408630  45.7956270  89.7871730  37.3833940
  49.7939610  87.2069100  38.3195820  50.3968980  87.7789310  38.7944340
  49.0532600  87.7708540  38.0969720  52.9374210  87.6090660  33.5936100
  53.1324840  88.5074110  33.8603530  52.1504080  87.3777740  34.0869050
  41.1225970  88.9551430  32.6312410  41.6518730  88.1681230  32.5020360
  41.7554290  89.6342620  32.8647940  43.3163810  88.6926570  35.6857800
  42.6866550  87.9913880  35.8527930  42.7768950  89.4530700  35.4690960
  43.4419370  87.9710550  48.1210290  43.1603640  88.4744150  47.3571110
  43.8239070  87.1732300  47.7552420  50.0434830  87.3864130  48.6990760
  49.9300280  87.7058740  49.5942280  50.8604570  87.7876640  48.4028040
  48.9492980  95.4056600  19.0625500  48.8687030  94.4911210  18.7917210
  48.5357400  95.9023670  18.3565210  47.0811020  97.1835620  20.9434770
  46.3053120  96.7036060  21.2333340  47.7323950  96.5041270  20.7690930
  39.5068800  92.4557320  15.6052920  38.6185500  92.7973290  15.5032800
  39.7909990  92.2557640  14.7133750  37.4701810  95.0562970  21.4892620
  38.0417920  94.2885170  21.4896260  37.4703350  95.3551730  20.5799230
  38.7126680  90.4647330  23.2761550  38.5329520  89.5673080  23.5564310
  38.3106760  91.0119200  23.9508500  47.5525180  92.6663190  21.1773860
  47.9290000  91.7935070  21.0647530  47.4544690  93.0021890  20.2864300
  41.6830190  91.0388820  16.6391300  41.7896940  91.9392550  16.9460060
  40.7722550  90.9906790  16.3485950  51.3349300  90.1613630  18.1102200
  52.1558920  89.6710200  18.1527680  51.3683380  90.7511290  18.8634040
  39.3313350  92.9607830  21.8843890  40.0123460  93.2246200  22.5031290
  39.0161400  92.1208700  22.2181900  43.5237920  94.0075190  20.9716480
  44.0316140  94.5056160  21.6121500  44.0551160  93.2310390  20.7955840
  55.6248850  92.1780380  24.6745830  54.9201020  92.5662090  24.1560940
  55.8906770  92.8730670  25.2766760  41.8074020  88.6473750  25.2379900
  41.8092460  89.1646140  24.4325800  40.9778330  88.1703930  25.2149830
  51.5710780  92.1014010  20.8829740  50.8666350  92.3898900  21.4632850
  51.9322940  92.9114120  20.5229300  41.4889350  90.3583710  23.2450350
  41.8306160  91.2025760  22.9504220  40.5505160  90.5067450  23.3615690
  54.6397700  91.5468800  21.2738950  53.6922610  91.5807780  21.4054380
  54.9647690  92.3607750  21.6588310  45.1717240  87.8465980  19.5694940
  45.4792220  87.2912870  18.8530440  44.2417940  87.9810440  19.3867930
  47.5598000  95.9114810  16.3055060  46.6327280  95.8452190  16.5343530
  47.7122820  96.8494940  16.1910300  47.5467080  92.1831810  13.3022220
  46.6070750  92.3445770  13.3874680  47.8650340  92.9017490  12.7558210
  51.0321850  93.6519650  24.2256120  50.6193030  94.4773360  24.4796110
  50.2997800  93.0664690  24.0332480  43.1654640  96.4379550  19.0874790
  42.7611640  95.7256800  18.5920690  43.2517760  96.0932790  19.9762830
  41.8783260  93.2122760  22.8673830  42.4297850  93.3218100  22.0927080
  42.3926770  93.5860360  23.5829060  53.3477130  87.9664730  12.1304100
  53.0349790  88.0591560  13.0303170  54.1089600  88.5445760  12.0801530
  39.8659270  95.3324530  16.5881440  39.7456870  96.0586620  15.9762710
  39.5560160  94.5627440  16.1109350  54.5578420  92.7036230  28.1078240
  53.9422690  93.2115900  27.5793700  54.2374840  91.8034560  28.0504180
  42.3322930  88.6759600  19.9705110  41.8891080  89.4569140  19.6389630
  42.8907920  88.9989490  20.6776050  46.6192740  91.5428120  25.5740430
  46.1572110  91.7511140  26.3860370  46.2170850  90.7287470  25.2711100
  51.6197250  92.7637070  26.7037090  50.7690840  92.4642820  27.0246160
  51.4599040  93.0079080  25.7920910  48.7146960  94.2638820  28.8035880
  49.0400370  93.4302570  28.4638110  49.5027290  94.7867340  28.9514210
  45.4481750  88.2970300  14.8510940  44.8235930  88.2930170  15.5764250
  45.3611870  87.4301260  14.4546910  44.3698830  89.2206930  21.8294710
  44.6671160  90.1269760  21.7486730  44.9184390  88.7325710  21.2154280
  42.1237150  93.7993170  17.6986360  41.8978070  93.5830340  18.6032980
  41.3429680  94.2321630  17.3532330  49.3534910  93.8056540  16.2977010
  48.7543800  94.5292340  16.1140630  49.9014520  93.7433320  15.5153460
  44.5636360  94.6978750  28.3646630  44.4679960  93.7573480  28.2147030
  45.4068340  94.9193820  27.9694700  47.9599780  92.4420080  18.3280290
  48.3529350  92.7592280  17.5148980  48.3216630  91.5631960  18.4424810
  39.6946900  91.1092420  26.5180410  39.3010290  91.9567630  26.7253190
  39.0065300  90.4718790  26.7089050  46.2691950  91.1927390  29.5877150
  45.5790270  90.9999590  30.2223240  47.0124250  91.4762030  30.1201450
  36.9963950  89.0320880  20.5510490  36.7077000  89.6023740  21.2635470
  37.7409710  88.5525330  20.9141720  37.1834180  92.9741000  11.7613210
  37.1008850  93.9171760  11.9028200  36.8317240  92.8315910  10.8825560
  48.5454920  95.0325830  22.4231070  47.8136040  95.5412640  22.7721170
  48.1479260  94.2155810  22.1219850  44.9832310  91.7080030  20.8283560
  44.9868370  91.2669980  19.9788100  45.8783430  92.0297360  20.9355380
  40.8334690  91.5906520  19.7877770  40.4934740  92.0681750  20.5444820
  40.0712010  91.1371640  19.4278870  45.0452460  92.7092110  13.8190320
  45.1665280  92.6678590  14.7676140  44.6600970  93.5716260  13.6637050
  49.0080830  90.4859510  21.8354010  49.0253570  90.9368160  22.6795860
  48.7596410  89.5865150  22.0487450  44.0573960  95.0193250  13.2173620
  43.4890860  94.5711500  12.5909530  44.7662960  95.3786030  12.6838770
  52.4351580  87.8991690  27.6740390  52.7597350  87.1681350  28.1998370
  52.4708090  87.5805330  26.7721380  45.2840280  95.7681810  22.5748970
  45.6510410  95.2940380  23.3210310  45.0945340  96.6423380  22.9157310
  38.1480770  90.5125500  18.7042440  37.8627690  90.1481170  19.5421060
  38.0859630  89.7805960  18.0905580  43.0739650  94.8090450  24.8933180
  42.7696720  95.6882430  25.1183540  44.0286110  94.8690240  24.9290620
  47.8219360  89.4054760  15.4255810  47.0083970  88.9067930  15.3501120
  47.6281310  90.2453010  15.0092160  50.5367750  93.7774410  13.7217970
  51.4247370  94.0891640  13.5469310  50.5072840  92.9046660  13.3298550
  39.1303380  95.6493190  26.0404540  38.7718320  96.3147040  26.6277880
  38.8357940  94.8176740  26.4117160  42.3316500  96.1077430  28.9244090
  42.0316640  96.2534610  28.0271910  43.1027740  95.5482720  28.8317480
  52.8082020  95.0886250  13.1897830  52.7245740  95.5200470  12.3394270
  53.5276210  95.5484600  13.6224650  37.6411430  95.6484450  12.6639140
  38.5106280  95.9309250  12.9475060  37.1501750  96.4620320  12.5487950
  40.7058020  87.3795310  17.2569940  40.5772650  87.3713210  18.2054860
  39.8820040  87.7178400  16.9060950  37.7051950  89.1386430  26.7176640
  36.9910470  89.3383350  27.3229250  38.1246990  88.3626000  27.0891440
  49.1990730  91.6308740  24.4678090  49.5671550  90.8103950  24.7957660
  48.3388930  91.6910630  24.8833740  52.5652760  90.5865680  15.2765650
  51.9365920  90.6911350  14.5623880  52.0704680  90.8062460  16.0659530
  44.5336790  92.8651630  16.6923530  43.8252940  93.3337970  17.1337140
  44.8181270  92.2073640  17.3268720  46.1592720  94.2848330  24.6916060
  46.6577970  94.7594150  25.3567910  46.3015670  93.3611850  24.8986090
  48.5652220  89.5902290  18.1319320  48.4420000  89.6088420  17.1828830
  49.5136780  89.6381230  18.2517720  42.7371810  91.1736710  14.0674240
  43.5862340  91.6106860  14.0014430  42.3703080  91.4856970  14.8946300
  53.3659580  90.5016290  25.5344450  52.8633180  91.2421690  25.8738260
  54.1816240  90.8900290  25.2181240  51.6581590  95.7449470  18.9805810
  50.7171730  95.7599700  19.1553500  51.9725660  94.9585430  19.4266110
  40.3309990  94.8594140  13.2242660  40.4113580  93.9121650  13.3360060
  41.2229740  95.1901020  13.3303320  37.8580790  96.6809060  28.4598830
  38.3619810  96.1016340  29.0315060  37.1188210  96.9649290  28.9975200
  39.8903870  94.8238650  29.3548900  39.9309210  94.5252520  30.2634130
  40.7449370  95.2246260  29.1956420  41.8309680  93.4030750  27.3223390
  41.3006140  92.9121700  26.6946730  42.4997750  93.8314950  26.7881320
  46.1809900  96.4471810  11.7629510  46.7015560  95.7320830  11.3970660
  46.8278300  97.0857680  12.0630020  51.2009910  95.2096370  29.0903730
  51.7830680  94.4548690  29.0024210  51.3771680  95.7403810  28.3135210
  42.3181980  90.3693120  27.4020680  42.2238850  89.7513870  26.6771550
  41.7379370  91.0959410  27.1750590  45.0843420  88.9266360  24.4348070
  44.6360720  88.9490620  23.5893620  44.4508620  88.5285380  25.0318370
  47.8266870  95.5536870  26.4398350  47.9463080  94.9578010  27.1793190
  48.6860870  95.5906560  26.0199650  50.1654770  96.1074060  25.0160860
  49.6389990  96.6316680  24.4126000  50.5086110  96.7401450  25.6470590
  42.5641160  93.4967430  11.4610570  42.3630220  92.6334790  11.8223910
  42.3933210  93.4100790  10.5232170  44.5935640  92.0958220  27.6974170
  45.1835330  91.7874070  28.3851990  43.7755880  91.6237970  27.8534070
  49.4129070  91.7124030  27.9307190  48.7244590  91.0505570  27.8657180
  50.1335090  91.2662300  28.3755650  50.0429470  88.3075660  13.9897450
  50.3231760  87.4643560  14.3456870  49.2695200  88.5398770  14.5036200
  41.3623960  90.5968050  11.4488450  41.6649860  90.6035480  10.5407600
  42.1018550  90.2465910  11.9456110  44.5808890  89.5402670  12.4344650
  44.2330890  88.8626660  11.8547100  44.7821660  89.0792180  13.2488040
  37.9214530  96.0690320  18.8309020  37.2663370  95.8001960  18.1868720
  38.7592480  95.9594800  18.3811000  50.8704970  90.8631610  13.0527510
  51.2889850  90.6762590  12.2124170  50.5641030  90.0110660  13.3630440
  54.3694700  95.7755750  16.7503310  53.9938300  95.0083680  16.3184600
  53.6397820  96.1578450  17.2378240  38.9590460  96.4542890  23.3712360
  39.3263500  96.3670290  24.2508380  38.3901280  95.6909440  23.2719220
  53.7594320  94.9227270  26.3842830  53.5280410  94.6940020  25.4840780
  54.0198870  95.8426820  26.3387720  38.5106460  93.3651980  27.2770780
  37.6162510  93.3318740  27.6164490  39.0504010  93.5638770  28.0422030
  52.1982390  90.1483700  29.1622530  53.0752570  90.1567100  29.5456530
  52.2103230  89.4114540  28.5514880  37.1352610  93.2789250  14.7734350
  36.2316690  93.5419450  14.5986010  37.6193230  93.5500420  13.9934310
  53.6445660  94.0013240  20.0510550  54.1683140  93.5075890  19.4200720
  54.2305080  94.1363600  20.7958120  53.8235380  94.0853110  23.5730100
  52.8738090  94.0516650  23.6875090  54.0048390  94.9953220  23.3379870
  39.6779820  92.3354790  12.6828730  40.3871520  91.9138010  12.1976010
  38.9619760  92.4030020  12.0512080  39.3253980  88.3894120  11.7231380
  40.0482110  88.9303060  12.0412600  39.5978500  88.1157540  10.8472920
  53.1345630  93.2586590  15.9902960  53.6304750  93.0257460  16.7751840
  52.9361700  92.4198430  15.5740600  39.0146170  87.6400310  21.6254000
  39.6622360  87.0897690  21.1849160  39.4348010  87.8943460  22.4469810
  54.5632790  91.8947540  18.5240640  54.4532070  91.7403580  19.4622910
  55.3240380  91.3668480  18.2816050  52.9098510  87.8341670  24.9823640
  53.5470730  88.4475810  25.3482830  53.0573400  87.8702330  24.0372870
  55.4523060  89.7255460  11.7646780  56.3772370  89.5936640  11.5565070
  55.4298850  89.8048280  12.7183230  55.5261550  90.4966120  14.3903490
  54.7313050  90.4311240  14.9196400  55.7304830  91.4316760  14.3788840
  38.7678170  87.7955980  24.3679320  38.4192990  88.2519800  25.1337500
  38.4365870  86.9013110  24.4501750  46.2802990  88.9867860  27.8898740
  46.2191880  89.5789690  28.6394150  47.2203370  88.8793820  27.7449000
  48.9177550  88.6437920  27.5291030  49.5317960  88.9617210  26.8672110
  49.4627110  88.1586510  28.1486890  39.4398810  87.3232180  27.6430090
  39.9881800  87.1420230  26.8796200  39.5054120  86.5326290  28.1786400
  49.6585590  87.2070060  23.8560320  48.7845430  87.5405170  23.6533250
  49.5496340  86.7343240  24.6812190  50.5657570  89.4140930  25.2402040
  50.2370930  88.5992690  24.8603770  51.5139870  89.3710740  25.1167730
  47.4060410  88.1239900  22.7953230  46.6232200  88.5985400  23.0749990
  47.1123340  87.2194730  22.6866410  51.9581480  88.8263000  20.8402320
  52.3989570  88.7708100  19.9923920  51.6889070  89.7421010  20.9112500
  53.8220050  88.4578240  18.8511140  53.7608450  87.5139460  18.7042160
  54.6012080  88.5658330  19.3964600  38.7500820  88.4287380  15.3166950
  39.5080180  88.5416260  14.7430980  38.2877990  89.2656580  15.2710380
  45.2914630  90.5426650  18.3069260  44.4789140  90.1683540  17.9665140
  45.7956270  89.7871730  18.6090450  49.7939610  87.2069100  19.5452330
  50.3968980  87.7789310  20.0200850  49.0532600  87.7708540  19.3226230
  52.9374210  87.6090660  14.8192610  53.1324840  88.5074110  15.0860040
  52.1504080  87.3777740  15.3125560  41.1225970  88.9551430  13.8568920
  41.6518730  88.1681230  13.7276870  41.7554290  89.6342620  14.0904450
  43.3163810  88.6926570  16.9114310  42.6866550  87.9913880  17.0784440
  42.7768950  89.4530700  16.6947470  43.4419370  87.9710550  29.3466800
  43.1603640  88.4744150  28.5827620  43.8239070  87.1732300  28.9808930
  50.0434830  87.3864130  29.9247270  49.9300280  87.7058740  30.8198790
  50.8604570  87.7876640  29.6284550  47.0811020  97.1835620   2.1691280
  46.3053120  96.7036060   2.4589850  47.7323950  96.5041270   1.9947440
  37.4701810  95.0562970   2.7149130  38.0417920  94.2885170   2.7152770
  37.4703350  95.3551730   1.8055740  38.7126680  90.4647330   4.5018060
  38.5329520  89.5673080   4.7820820  38.3106760  91.0119200   5.1765010
  39.3313350  92.9607830   3.1100400  40.0123460  93.2246200   3.7287800
  39.0161400  92.1208700   3.4438410  43.5237920  94.0075190   2.1972990
  44.0316140  94.5056160   2.8378010  44.0551160  93.2310390   2.0212350
  55.6248850  92.1780380   5.9002340  54.9201020  92.5662090   5.3817450
  55.8906770  92.8730670   6.5023270  41.8074020  88.6473750   6.4636410
  41.8092460  89.1646140   5.6582310  40.9778330  88.1703930   6.4406340
  51.5710780  92.1014010   2.1086250  50.8666350  92.3898900   2.6889360
  51.9322940  92.9114120   1.7485810  41.4889350  90.3583710   4.4706860
  41.8306160  91.2025760   4.1760730  40.5505160  90.5067450   4.5872200
  54.6397700  91.5468800   2.4995460  53.6922610  91.5807780   2.6310890
  54.9647690  92.3607750   2.8844820  51.0321850  93.6519650   5.4512630
  50.6193030  94.4773360   5.7052620  50.2997800  93.0664690   5.2588990
  41.8783260  93.2122760   4.0930340  42.4297850  93.3218100   3.3183590
  42.3926770  93.5860360   4.8085570  54.5578420  92.7036230   9.3334750
  53.9422690  93.2115900   8.8050210  54.2374840  91.8034560   9.2760690
  46.6192740  91.5428120   6.7996940  46.1572110  91.7511140   7.6116880
  46.2170850  90.7287470   6.4967610  51.6197250  92.7637070   7.9293600
  50.7690840  92.4642820   8.2502670  51.4599040  93.0079080   7.0177420
  48.7146960  94.2638820  10.0292390  49.0400370  93.4302570   9.6894620
  49.5027290  94.7867340  10.1770720  44.3698830  89.2206930   3.0551220
  44.6671160  90.1269760   2.9743240  44.9184390  88.7325710   2.4410790
  44.5636360  94.6978750   9.5903140  44.4679960  93.7573480   9.4403540
  45.4068340  94.9193820   9.1951210  39.6946900  91.1092420   7.7436920
  39.3010290  91.9567630   7.9509700  39.0065300  90.4718790   7.9345560
  46.2691950  91.1927390  10.8133660  45.5790270  90.9999590  11.4479750
  47.0124250  91.4762030  11.3457960  36.9963950  89.0320880   1.7767000
  36.7077000  89.6023740   2.4891980  37.7409710  88.5525330   2.1398230
  48.5454920  95.0325830   3.6487580  47.8136040  95.5412640   3.9977680
  48.1479260  94.2155810   3.3476360  49.0080830  90.4859510   3.0610520
  49.0253570  90.9368160   3.9052370  48.7596410  89.5865150   3.2743960
  52.4351580  87.8991690   8.8996900  52.7597350  87.1681350   9.4254880
  52.4708090  87.5805330   7.9977890  45.2840280  95.7681810   3.8005480
  45.6510410  95.2940380   4.5466820  45.0945340  96.6423380   4.1413820
  43.0739650  94.8090450   6.1189690  42.7696720  95.6882430   6.3440050
  44.0286110  94.8690240   6.1547130  39.1303380  95.6493190   7.2661050
  38.7718320  96.3147040   7.8534390  38.8357940  94.8176740   7.6373670
  42.3316500  96.1077430  10.1500600  42.0316640  96.2534610   9.2528420
  43.1027740  95.5482720  10.0573990  37.7051950  89.1386430   7.9433150
  36.9910470  89.3383350   8.5485760  38.1246990  88.3626000   8.3147950
  49.1990730  91.6308740   5.6934600  49.5671550  90.8103950   6.0214170
  48.3388930  91.6910630   6.1090250  46.1592720  94.2848330   5.9172570
  46.6577970  94.7594150   6.5824420  46.3015670  93.3611850   6.1242600
  53.3659580  90.5016290   6.7600960  52.8633180  91.2421690   7.0994770
  54.1816240  90.8900290   6.4437750  37.8580790  96.6809060   9.6855340
  38.3619810  96.1016340  10.2571570  37.1188210  96.9649290  10.2231710
  39.8903870  94.8238650  10.5805410  39.9309210  94.5252520  11.4890640
  40.7449370  95.2246260  10.4212930  41.8309680  93.4030750   8.5479900
  41.3006140  92.9121700   7.9203240  42.4997750  93.8314950   8.0137830
  51.2009910  95.2096370  10.3160240  51.7830680  94.4548690  10.2280720
  51.3771680  95.7403810   9.5391720  42.3181980  90.3693120   8.6277190
  42.2238850  89.7513870   7.9028060  41.7379370  91.0959410   8.4007100
  45.0843420  88.9266360   5.6604580  44.6360720  88.9490620   4.8150130
  44.4508620  88.5285380   6.2574880  47.8266870  95.5536870   7.6654860
  47.9463080  94.9578010   8.4049700  48.6860870  95.5906560   7.2456160
  50.1654770  96.1074060   6.2417370  49.6389990  96.6316680   5.6382510
  50.5086110  96.7401450   6.8727100  44.5935640  92.0958220   8.9230680
  45.1835330  91.7874070   9.6108500  43.7755880  91.6237970   9.0790580
  49.4129070  91.7124030   9.1563700  48.7244590  91.0505570   9.0913690
  50.1335090  91.2662300   9.6012160  38.9590460  96.4542890   4.5968870
  39.3263500  96.3670290   5.4764890  38.3901280  95.6909440   4.4975730
  53.7594320  94.9227270   7.6099340  53.5280410  94.6940020   6.7097290
  54.0198870  95.8426820   7.5644230  38.5106460  93.3651980   8.5027290
  37.6162510  93.3318740   8.8421000  39.0504010  93.5638770   9.2678540
  52.1982390  90.1483700  10.3879040  53.0752570  90.1567100  10.7713040
  52.2103230  89.4114540   9.7771390  53.8235380  94.0853110   4.7986610
  52.8738090  94.0516650   4.9131600  54.0048390  94.9953220   4.5636380
  39.0146170  87.6400310   2.8510510  39.6622360  87.0897690   2.4105670
  39.4348010  87.8943460   3.6726320  52.9098510  87.8341670   6.2080150
  53.5470730  88.4475810   6.5739340  53.0573400  87.8702330   5.2629380
  38.7678170  87.7955980   5.5935830  38.4192990  88.2519800   6.3594010
  38.4365870  86.9013110   5.6758260  46.2802990  88.9867860   9.1155250
  46.2191880  89.5789690   9.8650660  47.2203370  88.8793820   8.9705510
  48.9177550  88.6437920   8.7547540  49.5317960  88.9617210   8.0928620
  49.4627110  88.1586510   9.3743400  39.4398810  87.3232180   8.8686600
  39.9881800  87.1420230   8.1052710  39.5054120  86.5326290   9.4042910
  49.6585590  87.2070060   5.0816830  48.7845430  87.5405170   4.8789760
  49.5496340  86.7343240   5.9068700  50.5657570  89.4140930   6.4658550
  50.2370930  88.5992690   6.0860280  51.5139870  89.3710740   6.3424240
  47.4060410  88.1239900   4.0209740  46.6232200  88.5985400   4.3006500
  47.1123340  87.2194730   3.9122920  43.4419370  87.9710550  10.5723310
  43.1603640  88.4744150   9.8084130  43.8239070  87.1732300  10.2065440
  50.0434830  87.3864130  11.1503780  49.9300280  87.7058740  12.0455300
  50.8604570  87.7876640  10.8541060  48.9492980  76.6313110  94.1599460
  48.8687030  75.7167720  93.8891170  48.5357400  77.1280180  93.4539170
  51.1018450  82.8152320  94.8207860  50.6399980  82.0439560  95.1495030
  51.9144000  82.8418390  95.3260310  39.5068800  73.6813830  90.7026880
  38.6185500  74.0229800  90.6006760  39.7909990  73.4814150  89.8107710
  47.3281760  85.1010330  94.4411850  46.7093200  85.5567830  93.8706290
  48.1833540  85.2561790  94.0401550  41.6830190  72.2645330  91.7365260
  41.7896940  73.1649060  92.0434020  40.7722550  72.2163300  91.4459910
  51.3349300  71.3870140  93.2076160  52.1558920  70.8966710  93.2501640
  51.3683380  71.9767800  93.9608000  48.1945110  79.9849570  91.8343760
  47.5762380  80.4499020  91.2706480  48.7068360  80.6777050  92.2513270
  37.5628310  80.6706100  89.2083390  37.1856290  81.1593200  88.4768290
  37.8201380  81.3431380  89.8389920  45.1717240  69.0722490  94.6668900
  45.4792220  68.5169380  93.9504400  44.2417940  69.2066950  94.4841890
  52.0177720  81.5106000  92.0466530  51.9074050  80.5680330  92.1715950
  52.0145970  81.8721640  92.9329290  47.5598000  77.1371320  91.4029020
  46.6327280  77.0708700  91.6317490  47.7122820  78.0751450  91.2884260
  47.5467080  73.4088320  88.3996180  46.6070750  73.5702280  88.4848640
  47.8650340  74.1274000  87.8532170  51.5895290  78.6991620  91.9064270
  50.9707710  78.3611170  91.2590570  51.5719740  78.0551380  92.6143460
  43.1654640  77.6636060  94.1848750  42.7611640  76.9513310  93.6894650
  43.2517760  77.3189300  95.0736790  49.7659990  77.9378430  88.9137020
  50.2053270  77.1000860  88.7674840  50.4788410  78.5707830  89.0001160
  47.8755370  82.8774500  92.8818260  48.3151280  83.6198830  92.4673650
  47.8142260  83.1201070  93.8057220  53.3477130  69.1921240  87.2278060
  53.0349790  69.2848070  88.1277130  54.1089600  69.7702270  87.1775490
  39.8659270  76.5581040  91.6855400  39.7456870  77.2843130  91.0736670
  39.5560160  75.7883950  91.2083310  38.7492270  81.4296370  93.9030220
  38.3420350  81.5710960  93.0483820  39.6405280  81.1456530  93.7001430
  50.5425550  85.8643620  90.2381270  50.3826690  85.5746560  91.1363100
  50.3772260  85.0883750  89.7026500  43.0213930  85.6442150  92.0152890
  42.8456410  84.7277690  91.8020690  42.1669670  86.0029440  92.2550690
  50.2451680  83.3731180  88.7979270  49.5516840  83.3708470  88.1381550
  50.9874540  82.9490500  88.3673440  49.8101610  84.9993890  92.8727760
  50.2658560  84.2183270  93.1866380  50.1494130  85.7100710  93.4168940
  42.3322930  69.9016110  95.0679070  41.8891080  70.6825650  94.7363590
  42.8907920  70.2246000  95.7750010  45.4481750  69.5226810  89.9484900
  44.8235930  69.5186680  90.6738210  45.3611870  68.6557770  89.5520870
  42.1237150  75.0249680  92.7960320  41.8978070  74.8086850  93.7006940
  41.3429680  75.4578140  92.4506290  49.3534910  75.0313050  91.3950970
  48.7543800  75.7548850  91.2114590  49.9014520  74.9689830  90.6127420
  47.9599780  73.6676590  93.4254250  48.3529350  73.9848790  92.6122940
  48.3216630  72.7888470  93.5398770  37.1834180  74.1997510  86.8587170
  37.1008850  75.1428270  87.0002160  36.8317240  74.0572420  85.9799520
  44.9832310  72.9336540  95.9257520  44.9868370  72.4926490  95.0762060
  45.8783430  73.2553870  96.0329340  40.8334690  72.8163030  94.8851730
  40.4934740  73.2938260  95.6418780  40.0712010  72.3628150  94.5252830
  45.0452460  73.9348620  88.9164280  45.1665280  73.8935100  89.8650100
  44.6600970  74.7972770  88.7611010  44.0573960  76.2449760  88.3147580
  43.4890860  75.7968010  87.6883490  44.7662960  76.6042540  87.7812730
  38.1480770  71.7382010  93.8016400  37.8627690  71.3737680  94.6395020
  38.0859630  71.0062470  93.1879540  41.6021440  80.2407950  90.5873990
  40.8283700  79.7005570  90.4272710  42.3316070  79.7214560  90.2491750
  47.8219360  70.6311270  90.5229770  47.0083970  70.1324440  90.4475080
  47.6281310  71.4709520  90.1066120  50.5367750  75.0030920  88.8191930
  51.4247370  75.3148150  88.6443270  50.5072840  74.1303170  88.4272510
  41.6458840  79.9088330  94.2252800  42.1637510  79.1056590  94.1709690
  41.1942860  79.8467470  95.0669630  46.5328340  81.1754610  89.4980100
  46.8744040  81.9196840  89.0023420  45.7041050  81.4885730  89.8604930
  52.8082020  76.3142760  88.2871790  52.7245740  76.7456980  87.4368230
  53.5276210  76.7741110  88.7198610  53.8369270  83.1685020  91.0153920
  53.1945430  82.5140640  91.2897640  53.4499930  83.5740110  90.2394590
  49.4155750  80.4970450  94.8625610  49.7679570  79.8998580  94.2026980
  48.5318080  80.1714680  95.0333860  45.5019030  81.2568140  92.2696020
  46.1890160  81.8037350  92.6503610  44.7151450  81.8008870  92.3045630
  37.6411430  76.8740960  87.7613100  38.5106280  77.1565760  88.0449020
  37.1501750  77.6876830  87.6461910  44.8046240  78.2614170  91.8821380
  45.2609020  79.0719420  92.1081570  44.4534450  77.9437310  92.7139870
  40.7058020  68.6051820  92.3543900  40.5772650  68.5969720  93.3028820
  39.8820040  68.9434910  92.0034910  52.2266650  82.0601480  87.5530270
  52.0004230  81.3431920  88.1454910  51.8362850  81.8113920  86.7152020
  38.0082680  86.0868340  88.3274730  38.3680320  86.6857680  87.6732000
  37.8675020  86.6328230  89.1009760  51.8082900  79.9773420  89.2144430
  51.5204600  80.4386110  90.0022310  52.6035070  79.5171190  89.4828650
  44.0251300  83.4699540  89.1448400  44.0161400  84.2029230  88.5292910
  43.1049660  83.2231120  89.2375360  39.6257940  78.6914430  89.8895160
  39.0185890  79.4313330  89.8990460  40.1007290  78.7813790  89.0633360
  52.5652760  71.8122190  90.3739610  51.9365920  71.9167860  89.6597840
  52.0704680  72.0318970  91.1633490  47.0110900  83.5327780  87.8073590
  47.1122880  83.3291770  86.8775570  46.1112640  83.2786060  88.0121370
  44.5336790  74.0908140  91.7897490  43.8252940  74.5594480  92.2311100
  44.8181270  73.4330150  92.4242680  48.5652220  70.8158800  93.2293280
  48.4420000  70.8344930  92.2802790  49.5136780  70.8637740  93.3491680
  45.6529010  86.0514100  92.5021260  45.9070510  86.0135490  91.5800630
  44.7041490  85.9247430  92.4949510  42.7371810  72.3993220  89.1648200
  43.5862340  72.8363370  89.0988390  42.3703080  72.7113480  89.9920260
  51.6581590  76.9705980  94.0779770  50.7171730  76.9856210  94.2527460
  51.9725660  76.1841940  94.5240070  41.6363230  78.6525580  87.6383730
  42.4026500  78.5406940  88.2009160  41.7137920  77.9563550  86.9860500
  40.3309990  76.0850650  88.3216620  40.4113580  75.1378160  88.4334020
  41.2229740  76.4157530  88.4277280  41.1324700  86.2346040  95.4251160
  41.8687180  85.6861500  95.6959730  41.5165620  87.1002050  95.2857150
  38.0170180  82.3019610  91.2992670  37.0909960  82.5440750  91.2898080
  38.4826610  83.1293870  91.1777420  44.2427010  85.4076350  87.2476730
  45.0355620  85.6965180  86.7958520  43.7231360  84.9768520  86.5689210
  53.2957180  84.6346480  88.6713470  53.0098690  84.2211620  87.8567650
  53.0976730  85.5634190  88.5513990  44.7604410  80.6279760  87.1119080
  44.6555050  80.0132110  87.8380460  44.5928630  80.1045650  86.3282090
  48.0007140  79.6899790  87.7161070  47.4517240  80.1369090  88.3603810
  48.6226400  79.1849040  88.2398740  43.6682260  78.6490710  89.6126370
  44.0898680  78.4830580  90.4557760  43.7933100  77.8390940  89.1181510
  46.1809900  77.6728320  86.8603470  46.7015560  76.9577340  86.4944620
  46.8278300  78.3114190  87.1603980  42.5641160  74.7223940  86.5584530
  42.3630220  73.8591300  86.9197870  42.3933210  74.6357300  85.6206130
  50.0429470  69.5332170  89.0871410  50.3231760  68.6900070  89.4430830
  49.2695200  69.7655280  89.6010160  41.3623960  71.8224560  86.5462410
  41.6649860  71.8291990  85.6381560  42.1018550  71.4722420  87.0430070
  44.5808890  70.7659180  87.5318610  44.2330890  70.0883170  86.9521060
  44.7821660  70.3048690  88.3462000  46.7457930  85.7539930  89.1505210
  47.6408720  86.0924900  89.1723970  46.7775560  85.0319340  88.5229490
  40.3854090  81.1266980  87.3792210  40.8228960  81.6696650  88.0349790
  40.8701820  80.3013930  87.3888550  37.5999890  83.9156010  94.8312470
  37.9302900  83.0477070  94.5991110  38.0290890  84.1214530  95.6617430
  42.1961810  82.2465020  92.4914440  41.8957350  82.1229990  93.3918350
  42.0899300  81.3873610  92.0830170  54.9653730  82.0261420  87.1941120
  54.1346690  82.0938070  87.6648350  55.1425560  82.9165540  86.8907980
  54.4210190  78.7708900  89.6975320  55.1829100  79.3405550  89.8035010
  54.4364560  78.2036100  90.4683630  37.9214530  77.2946830  93.9282980
  37.2663370  77.0258470  93.2842680  38.7592480  77.1851310  93.4784960
  55.4270160  79.6259000  94.5417250  55.7978990  78.8426320  94.1353220
  56.0672090  80.3148100  94.3634550  54.4729360  79.0643270  86.8547840
  54.7478200  79.9722150  86.7267060  54.2840100  79.0005800  87.7909830
  50.8704970  72.0888120  88.1501470  51.2889850  71.9019100  87.3098130
  50.5641030  71.2367170  88.4604400  54.3694700  77.0012260  91.8477270
  53.9938300  76.2340190  91.4158560  53.6397820  77.3834960  92.3352200
  37.1352610  74.5045760  89.8708310  36.2316690  74.7675960  89.6959970
  37.6193230  74.7756930  89.0908270  53.6445660  75.2269750  95.1484510
  54.1683140  74.7332400  94.5174680  54.2305080  75.3620110  95.8932080
  39.6779820  73.5611300  87.7802690  40.3871520  73.1394520  87.2949970
  38.9619760  73.6286530  87.1486040  39.3253980  69.6150630  86.8205340
  40.0482110  70.1559570  87.1386560  39.5978500  69.3414050  85.9446880
  53.1345630  74.4843100  91.0876920  53.6304750  74.2513970  91.8725800
  52.9361700  73.6454940  90.6714560  54.5632790  73.1204050  93.6214600
  54.4532070  72.9660090  94.5596870  55.3240380  72.5924990  93.3790010
  55.4523060  70.9511970  86.8620740  56.3772370  70.8193150  86.6539030
  55.4298850  71.0304790  87.8157190  55.5261550  71.7222630  89.4877450
  54.7313050  71.6567750  90.0170360  55.7304830  72.6573270  89.4762800
  52.4679970  85.7614180  93.4815840  53.0639040  85.4398750  92.8050260
  52.7258120  85.2886000  94.2729110  51.9581480  70.0519510  95.9376280
  52.3989570  69.9964610  95.0897880  51.6889070  70.9677520  96.0086460
  53.8220050  69.6834750  93.9485100  53.7608450  68.7395970  93.8016120
  54.6012080  69.7914840  94.4938560  38.1272800  85.8227110  92.9109050
  37.9594840  85.1897790  93.6090940  37.2607310  86.0286510  92.5603240
  38.7500820  69.6543890  90.4140910  39.5080180  69.7672770  89.8404940
  38.2877990  70.4913090  90.3684340  45.2914630  71.7683160  93.4043220
  44.4789140  71.3940050  93.0639100  45.7956270  71.0128240  93.7064410
  49.7939610  68.4325610  94.6426290  50.3968980  69.0045820  95.1174810
  49.0532600  68.9965050  94.4200190  52.9374210  68.8347170  89.9166570
  53.1324840  69.7330620  90.1834000  52.1504080  68.6034250  90.4099520
  39.7335500  84.5160340  90.3559190  39.2083120  84.8968370  89.6521150
  39.6580080  85.1411110  91.0768900  41.1225970  70.1807940  88.9542880
  41.6518730  69.3937740  88.8250830  41.7554290  70.8599130  89.1878410
  43.3163810  69.9183080  92.0088270  42.6866550  69.2170390  92.1758400
  42.7768950  70.6787210  91.7921430  54.4900820  86.0747880  91.6773130
  54.6653010  85.3885620  91.0334050  53.7922390  86.5994930  91.2849800
  42.3328470  86.4642720  89.2308440  43.0647290  86.1802000  88.6832330
  42.5922140  86.2256000  90.1207820  41.4943260  82.5807450  89.2354770
  40.8652140  83.0492550  89.7840600  41.6091090  81.7356670  89.6700960
  48.9492980  76.6313110  75.3855970  48.8687030  75.7167720  75.1147680
  48.5357400  77.1280180  74.6795680  47.0811020  78.4092130  77.2665240
  46.3053120  77.9292570  77.5563810  47.7323950  77.7297780  77.0921400
  41.0976850  78.7211940  78.1441000  40.2661730  78.4660650  78.5437510
  41.7057830  78.7922710  78.8798920  51.1018450  82.8152320  76.0464370
  50.6399980  82.0439560  76.3751540  51.9144000  82.8418390  76.5516820
  41.0778110  82.7552030  78.3399020  41.3806150  81.8649770  78.1609240
  41.8221700  83.3122250  78.1121270  39.5068800  73.6813830  71.9283390
  38.6185500  74.0229800  71.8263270  39.7909990  73.4814150  71.0364220
  37.4701810  76.2819480  77.8123090  38.0417920  75.5141680  77.8126730
  37.4703350  76.5808240  76.9029700  47.3281760  85.1010330  75.6668360
  46.7093200  85.5567830  75.0962800  48.1833540  85.2561790  75.2658060
  46.5220010  81.0849320  77.2735400  46.4528290  80.1439260  77.1124530
  47.2839870  81.1750730  77.8457970  38.7126680  71.6903840  79.5992020
  38.5329520  70.7929590  79.8794780  38.3106760  72.2375710  80.2738970
  47.5525180  73.8919700  77.5004330  47.9290000  73.0191580  77.3878000
  47.4544690  74.2278400  76.6094770  41.6830190  72.2645330  72.9621770
  41.7896940  73.1649060  73.2690530  40.7722550  72.2163300  72.6716420
  51.3349300  71.3870140  74.4332670  52.1558920  70.8966710  74.4758150
  51.3683380  71.9767800  75.1864510  39.3313350  74.1864340  78.2074360
  40.0123460  74.4502710  78.8261760  39.0161400  73.3465210  78.5412370
  43.5237920  75.2331700  77.2946950  44.0316140  75.7312670  77.9351970
  44.0551160  74.4566900  77.1186310  55.6248850  73.4036890  80.9976300
  54.9201020  73.7918600  80.4791410  55.8906770  74.0987180  81.5997230
  41.8074020  69.8730260  81.5610370  41.8092460  70.3902650  80.7556270
  40.9778330  69.3960440  81.5380300  48.1945110  79.9849570  73.0600270
  47.5762380  80.4499020  72.4962990  48.7068360  80.6777050  73.4769780
  43.0576870  79.5125440  79.7383870  42.7246250  80.1394360  80.3804940
  43.2343550  80.0387320  78.9585540  51.5710780  73.3270520  77.2060210
  50.8666350  73.6155410  77.7863320  51.9322940  74.1370630  76.8459770
  41.4889350  71.5840220  79.5680820  41.8306160  72.4282270  79.2734690
  40.5505160  71.7323960  79.6846160  42.2695970  81.4806240  81.5533050
  42.8869970  82.1557320  81.2717500  41.4089090  81.8894220  81.4620550
  37.5628310  80.6706100  70.4339900  37.1856290  81.1593200  69.7024800
  37.8201380  81.3431380  71.0646430  53.1873560  82.9445650  79.4687690
  52.5037080  83.6144760  79.4604360  53.7267850  83.1426300  78.7032550
  54.6397700  72.7725310  77.5969420  53.6922610  72.8064290  77.7284850
  54.9647690  73.5864260  77.9818780  45.1717240  69.0722490  75.8925410
  45.4792220  68.5169380  75.1760910  44.2417940  69.2066950  75.7098400
  50.7232300  84.7889780  78.1832870  50.7359460  84.3852070  77.3155130
  50.1707520  85.5637070  78.0794300  52.0177720  81.5106000  73.2723040
  51.9074050  80.5680330  73.3972460  52.0145970  81.8721640  74.1585800
  50.1217740  79.6919620  79.5115480  50.5386530  79.4779730  78.6768940
  50.8457560  79.9492410  80.0824100  47.5598000  77.1371320  72.6285530
  46.6327280  77.0708700  72.8574000  47.7122820  78.0751450  72.5140770
  47.5467080  73.4088320  69.6252690  46.6070750  73.5702280  69.7105150
  47.8650340  74.1274000  69.0788680  54.0679840  78.0906840  79.6031720
  53.2398470  78.1599930  79.1281850  54.6630320  78.6761150  79.1347550
  51.5895290  78.6991620  73.1320780  50.9707710  78.3611170  72.4847080
  51.5719740  78.0551380  73.8399970  51.0321850  74.8776160  80.5486590
  50.6193030  75.7029870  80.8026580  50.2997800  74.2921200  80.3562950
  43.1654640  77.6636060  75.4105260  42.7611640  76.9513310  74.9151160
  43.2517760  77.3189300  76.2993300  43.6336340  81.3503620  77.5744470
  43.3364630  80.7449090  76.8952250  44.5836160  81.3880930  77.4633830
  41.8783260  74.4379270  79.1904300  42.4297850  74.5474610  78.4157550
  42.3926770  74.8116870  79.9059530  51.7221950  84.9235490  81.2367570
  51.2452510  85.7307680  81.0440180  51.0383740  84.2713820  81.3893780
  42.7254770  81.0885310  84.2252270  41.8283300  81.3125280  84.4725670
  42.7507640  81.2120250  83.2763670  49.7659990  77.9378430  70.1393530
  50.2053270  77.1000860  69.9931350  50.4788410  78.5707830  70.2257670
  41.5525990  77.9598630  82.8009640  41.4133760  78.8321430  83.1697040
  40.6707350  77.6171440  82.6557580  47.8755370  82.8774500  74.1074770
  48.3151280  83.6198830  73.6930160  47.8142260  83.1201070  75.0313730
  43.3506340  83.9020330  85.0094790  43.3221770  84.3063280  84.1423220
  43.1871310  82.9730690  84.8466390  53.3477130  69.1921240  68.4534570
  53.0349790  69.2848070  69.3533640  54.1089600  69.7702270  68.4032000
  39.8659270  76.5581040  72.9111910  39.7456870  77.2843130  72.2993180
  39.5560160  75.7883950  72.4339820  55.3021160  84.6847430  86.3058960
  55.7780880  85.1630320  86.9848040  55.9228320  84.6164920  85.5804460
  37.5044640  79.7296180  78.7180550  37.5825060  79.8644950  77.7736270
  38.1186320  79.0212070  78.9108670  38.7492270  81.4296370  75.1286730
  38.3420350  81.5710960  74.2740330  39.6405280  81.1456530  74.9257940
  54.7054410  81.8760280  83.4658970  54.8317470  81.6372160  82.5476150
  54.7475790  81.0444820  83.9381050  48.5671150  85.5788280  82.0353780
  49.0815820  85.4896290  82.8376210  47.7240230  85.9247980  82.3281690
  50.5425550  85.8643620  71.4637780  50.3826690  85.5746560  72.3619610
  50.3772260  85.0883750  70.9283010  43.0213930  85.6442150  73.2409400
  42.8456410  84.7277690  73.0277200  42.1669670  86.0029440  73.4807200
  50.2451680  83.3731180  70.0235780  49.5516840  83.3708470  69.3638060
  50.9874540  82.9490500  69.5929950  49.8101610  84.9993890  74.0984270
  50.2658560  84.2183270  74.4122890  50.1494130  85.7100710  74.6425450
  54.5578420  73.9292740  84.4308710  53.9422690  74.4372410  83.9024170
  54.2374840  73.0291070  84.3734650  37.5604160  80.7710350  81.2575010
  37.7235200  80.3015710  80.4394380  38.0256610  80.2633910  81.9223850
  42.3322930  69.9016110  76.2935580  41.8891080  70.6825650  75.9620100
  42.8907920  70.2246000  77.0006520  46.6192740  72.7684630  81.8970900
  46.1572110  72.9767650  82.7090840  46.2170850  71.9543980  81.5941570
  51.6197250  73.9893580  83.0267560  50.7690840  73.6899330  83.3476630
  51.4599040  74.2335590  82.1151380  48.7146960  75.4895330  85.1266350
  49.0400370  74.6559080  84.7868580  49.5027290  76.0123850  85.2744680
  45.4481750  69.5226810  71.1741410  44.8235930  69.5186680  71.8994720
  45.3611870  68.6557770  70.7777380  44.3698830  70.4463440  78.1525180
  44.6671160  71.3526270  78.0717200  44.9184390  69.9582220  77.5384750
  42.1237150  75.0249680  74.0216830  41.8978070  74.8086850  74.9263450
  41.3429680  75.4578140  73.6762800  49.3534910  75.0313050  72.6207480
  48.7543800  75.7548850  72.4371100  49.9014520  74.9689830  71.8383930
  44.5636360  75.9235260  84.6877100  44.4679960  74.9829990  84.5377500
  45.4068340  76.1450330  84.2925170  47.9599780  73.6676590  74.6510760
  48.3529350  73.9848790  73.8379450  48.3216630  72.7888470  74.7655280
  39.6946900  72.3348930  82.8410880  39.3010290  73.1824140  83.0483660
  39.0065300  71.6975300  83.0319520  46.2691950  72.4183900  85.9107620
  45.5790270  72.2256100  86.5453710  47.0124250  72.7018540  86.4431920
  36.9963950  70.2577390  76.8740960  36.7077000  70.8280250  77.5865940
  37.7409710  69.7781840  77.2372190  37.1834180  74.1997510  68.0843680
  37.1008850  75.1428270  68.2258670  36.8317240  74.0572420  67.2056030
  48.5454920  76.2582340  78.7461540  47.8136040  76.7669150  79.0951640
  48.1479260  75.4412320  78.4450320  44.9832310  72.9336540  77.1514030
  44.9868370  72.4926490  76.3018570  45.8783430  73.2553870  77.2585850
  40.8334690  72.8163030  76.1108240  40.4934740  73.2938260  76.8675290
  40.0712010  72.3628150  75.7509340  45.0452460  73.9348620  70.1420790
  45.1665280  73.8935100  71.0906610  44.6600970  74.7972770  69.9867520
  49.0080830  71.7116020  78.1584480  49.0253570  72.1624670  79.0026330
  48.7596410  70.8121660  78.3717920  44.0573960  76.2449760  69.5404090
  43.4890860  75.7968010  68.9140000  44.7662960  76.6042540  69.0069240
  52.4351580  69.1248200  83.9970860  52.7597350  68.3937860  84.5228840
  52.4708090  68.8061840  83.0951850  39.1343140  80.1461780  83.4170820
  38.7497930  79.5055450  84.0153780  39.4455330  80.8497900  83.9865550
  45.2840280  76.9938320  78.8979440  45.6510410  76.5196890  79.6440780
  45.0945340  77.8679890  79.2387780  38.1480770  71.7382010  75.0272910
  37.8627690  71.3737680  75.8651530  38.0859630  71.0062470  74.4136050
  43.0739650  76.0346960  81.2163650  42.7696720  76.9138940  81.4414010
  44.0286110  76.0946750  81.2521090  41.6021440  80.2407950  71.8130500
  40.8283700  79.7005570  71.6529220  42.3316070  79.7214560  71.4748260
  52.3609420  79.2373310  77.6056890  53.0808540  79.7328600  77.2153000
  52.1591240  78.5591200  76.9610760  47.8219360  70.6311270  71.7486280
  47.0083970  70.1324440  71.6731590  47.6281310  71.4709520  71.3322630
  47.7428220  79.3082370  83.4925890  47.6765530  78.3878040  83.2383480
  47.1133360  79.4057810  84.2070530  50.5367750  75.0030920  70.0448440
  51.4247370  75.3148150  69.8699780  50.5072840  74.1303170  69.6529020
  41.6458840  79.9088330  75.4509310  42.1637510  79.1056590  75.3966200
  41.1942860  79.8467470  76.2926140  46.5328340  81.1754610  70.7236610
  46.8744040  81.9196840  70.2279930  45.7041050  81.4885730  71.0861440
  39.1303380  76.8749700  82.3635010  38.7718320  77.5403550  82.9508350
  38.8357940  76.0433250  82.7347630  42.3316500  77.3333940  85.2474560
  42.0316640  77.4791120  84.3502380  43.1027740  76.7739230  85.1547950
  47.6744950  82.1302940  83.2429690  47.6889490  81.1983900  83.0248600
  46.9670050  82.2162700  83.8819460  52.8082020  76.3142760  69.5128300
  52.7245740  76.7456980  68.6624740  53.5276210  76.7741110  69.9455120
  53.8856160  78.7710280  82.5898270  53.1604350  79.3639060  82.3927660
  54.4131620  78.7633820  81.7911640  53.8369270  83.1685020  72.2410430
  53.1945430  82.5140640  72.5154150  53.4499930  83.5740110  71.4651100
  49.4155750  80.4970450  76.0882120  49.7679570  79.8998580  75.4283490
  48.5318080  80.1714680  76.2590370  45.5019030  81.2568140  73.4952530
  46.1890160  81.8037350  73.8760120  44.7151450  81.8008870  73.5302140
  37.6411430  76.8740960  68.9869610  38.5106280  77.1565760  69.2705530
  37.1501750  77.6876830  68.8718420  44.8046240  78.2614170  73.1077890
  45.2609020  79.0719420  73.3338080  44.4534450  77.9437310  73.9396380
  47.1078850  83.7720510  80.3370190  47.7521070  83.9779890  81.0143610
  47.4708290  83.0108910  79.8841040  40.7058020  68.6051820  73.5800410
  40.5772650  68.5969720  74.5285330  39.8820040  68.9434910  73.2291420
  48.3810930  81.7752860  79.0547640  49.0233160  81.0746020  79.1679810
  48.9060280  82.5551300  78.8744530  52.2266650  82.0601480  68.7786780
  52.0004230  81.3431920  69.3711420  51.8362850  81.8113920  67.9408530
  50.1548550  82.5747760  82.2583700  50.4904790  83.1614450  82.9361620
  49.2348890  82.4440470  82.4881490  38.0082680  86.0868340  69.5531240
  38.3680320  86.6857680  68.8988510  37.8675020  86.6328230  70.3266270
  37.7051950  70.3642940  83.0407110  36.9910470  70.5639860  83.6459720
  38.1246990  69.5882510  83.4121910  51.8082900  79.9773420  70.4400940
  51.5204600  80.4386110  71.2278820  52.6035070  79.5171190  70.7085160
  37.9924540  84.3523200  84.0273640  38.1015660  83.4117940  83.8869030
  37.3405100  84.6177950  83.3787370  45.9837130  82.6239090  85.4271760
  45.6634000  81.9048330  85.9717450  45.3095490  83.2994160  85.5007820
  44.0251300  83.4699540  70.3704910  44.0161400  84.2029230  69.7549420
  43.1049660  83.2231120  70.4631870  39.6257940  78.6914430  71.1151670
  39.0185890  79.4313330  71.1246970  40.1007290  78.7813790  70.2889870
  49.1990730  72.8565250  80.7908560  49.5671550  72.0360460  81.1188130
  48.3388930  72.9167140  81.2064210  52.5652760  71.8122190  71.5996120
  51.9365920  71.9167860  70.8854350  52.0704680  72.0318970  72.3890000
  47.0110900  83.5327780  69.0330100  47.1122880  83.3291770  68.1032080
  46.1112640  83.2786060  69.2377880  44.5336790  74.0908140  73.0154000
  43.8252940  74.5594480  73.4567610  44.8181270  73.4330150  73.6499190
  46.1592720  75.5104840  81.0146530  46.6577970  75.9850660  81.6798380
  46.3015670  74.5868360  81.2216560  48.5652220  70.8158800  74.4549790
  48.4420000  70.8344930  73.5059300  49.5136780  70.8637740  74.5748190
  45.6529010  86.0514100  73.7277770  45.9070510  86.0135490  72.8057140
  44.7041490  85.9247430  73.7206020  42.7371810  72.3993220  70.3904710
  43.5862340  72.8363370  70.3244900  42.3703080  72.7113480  71.2176770
  53.3659580  71.7272800  81.8574920  52.8633180  72.4678200  82.1968730
  54.1816240  72.1156800  81.5411710  51.6581590  76.9705980  75.3036280
  50.7171730  76.9856210  75.4783970  51.9725660  76.1841940  75.7496580
  41.6363230  78.6525580  68.8640240  42.4026500  78.5406940  69.4265670
  41.7137920  77.9563550  68.2117010  40.3309990  76.0850650  69.5473130
  40.4113580  75.1378160  69.6590530  41.2229740  76.4157530  69.6533790
  53.6607170  84.1414830  76.9790540  53.7854590  84.9646000  77.4514350
  54.5272730  83.9305560  76.6314690  41.1324700  86.2346040  76.6507670
  41.8687180  85.6861500  76.9216240  41.5165620  87.1002050  76.5113660
  38.0170180  82.3019610  72.5249180  37.0909960  82.5440750  72.5154590
  38.4826610  83.1293870  72.4033930  40.1382980  85.4192110  85.8393250
  40.9395710  85.7404160  86.2528650  39.6234800  85.0587690  86.5613160
  44.2427010  85.4076350  68.4733240  45.0355620  85.6965180  68.0215030
  43.7231360  84.9768520  67.7945720  48.9747610  81.5271980  85.7868660
  48.3685770  81.5503580  85.0464410  48.6701720  80.7955020  86.3235910
  50.4047980  85.2552270  84.3978070  51.3569730  85.1710290  84.3478310
  50.2576200  85.9193980  85.0711860  53.2957180  84.6346480  69.8969980
  53.0098690  84.2211620  69.0824160  53.0976730  85.5634190  69.7770500
  37.8580790  77.9065570  84.7829300  38.3619810  77.3272850  85.3545530
  37.1188210  78.1905800  85.3205670  44.7604410  80.6279760  68.3375590
  44.6555050  80.0132110  69.0636970  44.5928630  80.1045650  67.5538600
  44.9118730  79.3136560  84.3164820  44.1464400  79.8821560  84.2319490
  45.0934690  79.0212770  83.4233050  48.0007140  79.6899790  68.9417580
  47.4517240  80.1369090  69.5860320  48.6226400  79.1849040  69.4655250
  52.0542080  81.0441890  84.8739840  52.7951550  81.3817650  84.3707300
  51.2914760  81.2133950  84.3209610  39.8903870  76.0495160  85.6779370
  39.9309210  75.7509030  86.5864600  40.7449370  76.4502770  85.5186890
  43.6682260  78.6490710  70.8382880  44.0898680  78.4830580  71.6814270
  43.7933100  77.8390940  70.3438020  41.8309680  74.6287260  83.6453860
  41.3006140  74.1378210  83.0177200  42.4997750  75.0571460  83.1111790
  46.1809900  77.6728320  68.0859980  46.7015560  76.9577340  67.7201130
  46.8278300  78.3114190  68.3860490  50.7287740  79.0956720  83.4095050
  51.1428760  79.2501800  84.2585470  49.7938740  79.2211940  83.5720830
  51.2009910  76.4352880  85.4134200  51.7830680  75.6805200  85.3254680
  51.3771680  76.9660320  84.6365680  42.3181980  71.5949630  83.7251150
  42.2238850  70.9770380  83.0002020  41.7379370  72.3215920  83.4981060
  45.0843420  70.1522870  80.7578540  44.6360720  70.1747130  79.9124090
  44.4508620  69.7541890  81.3548840  45.4902970  79.0477200  81.3790980
  45.9091080  79.8909930  81.2067220  44.5711600  79.1849240  81.1497760
  47.8266870  76.7793380  82.7628820  47.9463080  76.1834520  83.5023660
  48.6860870  76.8163070  82.3430120  50.1654770  77.3330570  81.3391330
  49.6389990  77.8573190  80.7356470  50.5086110  77.9657960  81.9701060
  42.5641160  74.7223940  67.7841040  42.3630220  73.8591300  68.1454380
  42.3933210  74.6357300  66.8462640  43.3410390  85.3530210  82.4948710
  42.8031480  86.0776270  82.1757410  43.5944350  84.8760550  81.7046050
  44.5935640  73.3214730  84.0204640  45.1835330  73.0130580  84.7082460
  43.7755880  72.8494480  84.1764540  49.4129070  72.9380540  84.2537660
  48.7244590  72.2762080  84.1887650  50.1335090  72.4918810  84.6986120
  50.0429470  69.5332170  70.3127920  50.3231760  68.6900070  70.6687340
  49.2695200  69.7655280  70.8266670  41.3623960  71.8224560  67.7718920
  41.6649860  71.8291990  66.8638070  42.1018550  71.4722420  68.2686580
  46.1972600  86.5881420  82.7535360  46.1231300  87.4916560  83.0607730
  45.2951440  86.2693320  82.7257430  44.5808890  70.7659180  68.7575120
  44.2330890  70.0883170  68.1777570  44.7821660  70.3048690  69.5718510
  46.7457930  85.7539930  70.3761720  47.6408720  86.0924900  70.3980480
  46.7775560  85.0319340  69.7486000  40.3854090  81.1266980  68.6048720
  40.8228960  81.6696650  69.2606300  40.8701820  80.3013930  68.6145060
  37.5999890  83.9156010  76.0568980  37.9302900  83.0477070  75.8247620
  38.0290890  84.1214530  76.8873940  42.1961810  82.2465020  73.7170950
  41.8957350  82.1229990  74.6174860  42.0899300  81.3873610  73.3086680
  38.0890100  84.7826600  78.7950610  37.6521090  84.9627400  79.6274760
  38.6567780  85.5401220  78.6532330  53.7252280  84.2843600  83.0827920
  53.1254270  84.3436160  82.3391840  53.8546180  83.3448580  83.2124770
  54.9653730  82.0261420  68.4197630  54.1346690  82.0938070  68.8904860
  55.1425560  82.9165540  68.1164490  54.4210190  78.7708900  70.9231830
  55.1829100  79.3405550  71.0291520  54.4364560  78.2036100  71.6940140
  37.9214530  77.2946830  75.1539490  37.2663370  77.0258470  74.5099190
  38.7592480  77.1851310  74.7041470  55.4270160  79.6259000  75.7673760
  55.7978990  78.8426320  75.3609730  56.0672090  80.3148100  75.5891060
  52.4103920  81.0095580  81.1804080  51.5963760  81.4392740  81.4429870
  52.8178120  81.6213990  80.5673130  54.4729360  79.0643270  68.0804350
  54.7478200  79.9722150  67.9523570  54.2840100  79.0005800  69.0166340
  50.8704970  72.0888120  69.3757980  51.2889850  71.9019100  68.5354640
  50.5641030  71.2367170  69.6860910  54.3694700  77.0012260  73.0733780
  53.9938300  76.2340190  72.6415070  53.6397820  77.3834960  73.5608710
  38.9590460  77.6799400  79.6942830  39.3263500  77.5926800  80.5738850
  38.3901280  76.9165950  79.5949690  53.7594320  76.1483780  82.7073300
  53.5280410  75.9196530  81.8071250  54.0198870  77.0683330  82.6618190
  38.5106460  74.5908490  83.6001250  37.6162510  74.5575250  83.9394960
  39.0504010  74.7895280  84.3652500  52.1982390  71.3740210  85.4853000
  53.0752570  71.3823610  85.8687000  52.2103230  70.6371050  84.8745350
  37.1352610  74.5045760  71.0964820  36.2316690  74.7675960  70.9216480
  37.6193230  74.7756930  70.3164780  53.6445660  75.2269750  76.3741020
  54.1683140  74.7332400  75.7431190  54.2305080  75.3620110  77.1188590
  53.8235380  75.3109620  79.8960570  52.8738090  75.2773160  80.0105560
  54.0048390  76.2209730  79.6610340  39.6779820  73.5611300  69.0059200
  40.3871520  73.1394520  68.5206480  38.9619760  73.6286530  68.3742550
  39.3253980  69.6150630  68.0461850  40.0482110  70.1559570  68.3643070
  39.5978500  69.3414050  67.1703390  53.1345630  74.4843100  72.3133430
  53.6304750  74.2513970  73.0982310  52.9361700  73.6454940  71.8971070
  39.0146170  68.8656820  77.9484470  39.6622360  68.3154200  77.5079630
  39.4348010  69.1199970  78.7700280  54.5632790  73.1204050  74.8471110
  54.4532070  72.9660090  75.7853380  55.3240380  72.5924990  74.6046520
  52.9098510  69.0598180  81.3054110  53.5470730  69.6732320  81.6713300
  53.0573400  69.0958840  80.3603340  55.4523060  70.9511970  68.0877250
  56.3772370  70.8193150  67.8795540  55.4298850  71.0304790  69.0413700
  55.5261550  71.7222630  70.7133960  54.7313050  71.6567750  71.2426870
  55.7304830  72.6573270  70.7019310  52.4679970  85.7614180  74.7072350
  53.0639040  85.4398750  74.0306770  52.7258120  85.2886000  75.4985620
  38.7678170  69.0212490  80.6909790  38.4192990  69.4776310  81.4567970
  38.4365870  68.1269620  80.7732220  40.3742540  82.1932090  84.8562980
  40.3312170  81.8225000  85.7377440  40.5053550  83.1309660  84.9964800
  44.0748570  83.7491680  80.4572700  43.8339930  84.0166240  79.5703220
  45.0151210  83.9197410  80.5123560  46.2802990  70.2124370  84.2129210
  46.2191880  70.8046200  84.9624620  47.2203370  70.1050330  84.0679470
  48.9177550  69.8694430  83.8521500  49.5317960  70.1873720  83.1902580
  49.4627110  69.3843020  84.4717360  55.3352730  85.7686060  81.2583340
  54.8411010  86.1654930  80.5410470  54.7266020  85.1435270  81.6520620
  39.4398810  68.5488690  83.9660560  39.9881800  68.3676740  83.2026670
  39.5054120  67.7582800  84.5016870  40.2130570  85.1394340  81.9760760
  39.6190890  85.0079040  82.7150800  40.2054410  84.3032480  81.5102860
  49.6585590  68.4326570  80.1790790  48.7845430  68.7661680  79.9763720
  49.5496340  67.9599750  81.0042660  50.5657570  70.6397440  81.5632510
  50.2370930  69.8249200  81.1834240  51.5139870  70.5967250  81.4398200
  53.0192180  86.4109480  78.5370080  52.5595150  87.1625290  78.1628100
  52.3904640  85.6915950  78.4784880  39.8442800  82.5052720  80.9268800
  39.1176860  81.8858010  80.8594750  39.9051950  82.8993330  80.0566880
  43.4487900  84.7197720  77.7118210  43.9652920  84.1085080  77.1866470
  44.0985280  85.2226500  78.2029220  46.1883400  85.6106210  78.5387190
  46.4761210  85.3560510  77.6620200  46.7006620  85.0583570  79.1292760
  47.4060410  69.3496410  79.1183700  46.6232200  69.8241910  79.3980460
  47.1123340  68.4451240  79.0096880  51.9581480  70.0519510  77.1632790
  52.3989570  69.9964610  76.3154390  51.6889070  70.9677520  77.2342970
  53.8220050  69.6834750  75.1741610  53.7608450  68.7395970  75.0272630
  54.6012080  69.7914840  75.7195070  38.1272800  85.8227110  74.1365560
  37.9594840  85.1897790  74.8347450  37.2607310  86.0286510  73.7859750
  38.7500820  69.6543890  71.6397420  39.5080180  69.7672770  71.0661450
  38.2877990  70.4913090  71.5940850  45.2914630  71.7683160  74.6299730
  44.4789140  71.3940050  74.2895610  45.7956270  71.0128240  74.9320920
  49.7939610  68.4325610  75.8682800  50.3968980  69.0045820  76.3431320
  49.0532600  68.9965050  75.6456700  52.9374210  68.8347170  71.1423080
  53.1324840  69.7330620  71.4090510  52.1504080  68.6034250  71.6356030
  39.7335500  84.5160340  71.5815700  39.2083120  84.8968370  70.8777660
  39.6580080  85.1411110  72.3025410  41.1225970  70.1807940  70.1799390
  41.6518730  69.3937740  70.0507340  41.7554290  70.8599130  70.4134920
  43.3163810  69.9183080  73.2344780  42.6866550  69.2170390  73.4014910
  42.7768950  70.6787210  73.0177940  46.2555760  86.5322310  85.9055390
  47.1823070  86.2966580  85.9491350  46.2406190  87.3594310  85.4241420
  54.4900820  86.0747880  72.9029640  54.6653010  85.3885620  72.2590560
  53.7922390  86.5994930  72.5106310  43.4419370  69.1967060  85.6697270
  43.1603640  69.7000660  84.9058090  43.8239070  68.3988810  85.3039400
  42.3328470  86.4642720  70.4564950  43.0647290  86.1802000  69.9088840
  42.5922140  86.2256000  71.3464330  41.4943260  82.5807450  70.4611280
  40.8652140  83.0492550  71.0097110  41.6091090  81.7356670  70.8957470
  50.0434830  68.6120640  86.2477740  49.9300280  68.9315250  87.1429260
  50.8604570  69.0133150  85.9515020  52.8233320  85.7592170  85.7296430
  53.6158640  85.2641400  85.5222390  53.1166470  86.4382310  86.3372040
  48.9492980  76.6313110  56.6112480  48.8687030  75.7167720  56.3404190
  48.5357400  77.1280180  55.9052190  47.0811020  78.4092130  58.4921750
  46.3053120  77.9292570  58.7820320  47.7323950  77.7297780  58.3177910
  41.0976850  78.7211940  59.3697510  40.2661730  78.4660650  59.7694020
  41.7057830  78.7922710  60.1055430  51.1018450  82.8152320  57.2720880
  50.6399980  82.0439560  57.6008050  51.9144000  82.8418390  57.7773330
  41.0778110  82.7552030  59.5655530  41.3806150  81.8649770  59.3865750
  41.8221700  83.3122250  59.3377780  39.5068800  73.6813830  53.1539900
  38.6185500  74.0229800  53.0519780  39.7909990  73.4814150  52.2620730
  37.4701810  76.2819480  59.0379600  38.0417920  75.5141680  59.0383240
  37.4703350  76.5808240  58.1286210  47.3281760  85.1010330  56.8924870
  46.7093200  85.5567830  56.3219310  48.1833540  85.2561790  56.4914570
  46.5220010  81.0849320  58.4991910  46.4528290  80.1439260  58.3381040
  47.2839870  81.1750730  59.0714480  38.7126680  71.6903840  60.8248530
  38.5329520  70.7929590  61.1051290  38.3106760  72.2375710  61.4995480
  47.5525180  73.8919700  58.7260840  47.9290000  73.0191580  58.6134510
  47.4544690  74.2278400  57.8351280  41.6830190  72.2645330  54.1878280
  41.7896940  73.1649060  54.4947040  40.7722550  72.2163300  53.8972930
  51.3349300  71.3870140  55.6589180  52.1558920  70.8966710  55.7014660
  51.3683380  71.9767800  56.4121020  39.3313350  74.1864340  59.4330870
  40.0123460  74.4502710  60.0518270  39.0161400  73.3465210  59.7668880
  43.5237920  75.2331700  58.5203460  44.0316140  75.7312670  59.1608480
  44.0551160  74.4566900  58.3442820  55.6248850  73.4036890  62.2232810
  54.9201020  73.7918600  61.7047920  55.8906770  74.0987180  62.8253740
  41.8074020  69.8730260  62.7866880  41.8092460  70.3902650  61.9812780
  40.9778330  69.3960440  62.7636810  48.1945110  79.9849570  54.2856780
  47.5762380  80.4499020  53.7219500  48.7068360  80.6777050  54.7026290
  43.0576870  79.5125440  60.9640380  42.7246250  80.1394360  61.6061450
  43.2343550  80.0387320  60.1842050  51.5710780  73.3270520  58.4316720
  50.8666350  73.6155410  59.0119830  51.9322940  74.1370630  58.0716280
  41.4889350  71.5840220  60.7937330  41.8306160  72.4282270  60.4991200
  40.5505160  71.7323960  60.9102670  42.2695970  81.4806240  62.7789560
  42.8869970  82.1557320  62.4974010  41.4089090  81.8894220  62.6877060
  37.5628310  80.6706100  51.6596410  37.1856290  81.1593200  50.9281310
  37.8201380  81.3431380  52.2902940  53.1873560  82.9445650  60.6944200
  52.5037080  83.6144760  60.6860870  53.7267850  83.1426300  59.9289060
  54.6397700  72.7725310  58.8225930  53.6922610  72.8064290  58.9541360
  54.9647690  73.5864260  59.2075290  45.1717240  69.0722490  57.1181920
  45.4792220  68.5169380  56.4017420  44.2417940  69.2066950  56.9354910
  50.7232300  84.7889780  59.4089380  50.7359460  84.3852070  58.5411640
  50.1707520  85.5637070  59.3050810  52.0177720  81.5106000  54.4979550
  51.9074050  80.5680330  54.6228970  52.0145970  81.8721640  55.3842310
  50.1217740  79.6919620  60.7371990  50.5386530  79.4779730  59.9025450
  50.8457560  79.9492410  61.3080610  47.5598000  77.1371320  53.8542040
  46.6327280  77.0708700  54.0830510  47.7122820  78.0751450  53.7397280
  47.5467080  73.4088320  50.8509200  46.6070750  73.5702280  50.9361660
  47.8650340  74.1274000  50.3045190  54.0679840  78.0906840  60.8288230
  53.2398470  78.1599930  60.3538360  54.6630320  78.6761150  60.3604060
  51.5895290  78.6991620  54.3577290  50.9707710  78.3611170  53.7103590
  51.5719740  78.0551380  55.0656480  51.0321850  74.8776160  61.7743100
  50.6193030  75.7029870  62.0283090  50.2997800  74.2921200  61.5819460
  43.1654640  77.6636060  56.6361770  42.7611640  76.9513310  56.1407670
  43.2517760  77.3189300  57.5249810  43.6336340  81.3503620  58.8000980
  43.3364630  80.7449090  58.1208760  44.5836160  81.3880930  58.6890340
  41.8783260  74.4379270  60.4160810  42.4297850  74.5474610  59.6414060
  42.3926770  74.8116870  61.1316040  51.7221950  84.9235490  62.4624080
  51.2452510  85.7307680  62.2696690  51.0383740  84.2713820  62.6150290
  42.7254770  81.0885310  65.4508780  41.8283300  81.3125280  65.6982180
  42.7507640  81.2120250  64.5020180  49.7659990  77.9378430  51.3650040
  50.2053270  77.1000860  51.2187860  50.4788410  78.5707830  51.4514180
  41.5525990  77.9598630  64.0266150  41.4133760  78.8321430  64.3953550
  40.6707350  77.6171440  63.8814090  47.8755370  82.8774500  55.3331280
  48.3151280  83.6198830  54.9186670  47.8142260  83.1201070  56.2570240
  43.3506340  83.9020330  66.2351300  43.3221770  84.3063280  65.3679730
  43.1871310  82.9730690  66.0722900  53.3477130  69.1921240  49.6791080
  53.0349790  69.2848070  50.5790150  54.1089600  69.7702270  49.6288510
  39.8659270  76.5581040  54.1368420  39.7456870  77.2843130  53.5249690
  39.5560160  75.7883950  53.6596330  55.3021160  84.6847430  67.5315470
  55.7780880  85.1630320  68.2104550  55.9228320  84.6164920  66.8060970
  37.5044640  79.7296180  59.9437060  37.5825060  79.8644950  58.9992780
  38.1186320  79.0212070  60.1365180  38.7492270  81.4296370  56.3543240
  38.3420350  81.5710960  55.4996840  39.6405280  81.1456530  56.1514450
  54.7054410  81.8760280  64.6915480  54.8317470  81.6372160  63.7732660
  54.7475790  81.0444820  65.1637560  48.5671150  85.5788280  63.2610290
  49.0815820  85.4896290  64.0632720  47.7240230  85.9247980  63.5538200
  50.5425550  85.8643620  52.6894290  50.3826690  85.5746560  53.5876120
  50.3772260  85.0883750  52.1539520  43.0213930  85.6442150  54.4665910
  42.8456410  84.7277690  54.2533710  42.1669670  86.0029440  54.7063710
  50.2451680  83.3731180  51.2492290  49.5516840  83.3708470  50.5894570
  50.9874540  82.9490500  50.8186460  49.8101610  84.9993890  55.3240780
  50.2658560  84.2183270  55.6379400  50.1494130  85.7100710  55.8681960
  54.5578420  73.9292740  65.6565220  53.9422690  74.4372410  65.1280680
  54.2374840  73.0291070  65.5991160  37.5604160  80.7710350  62.4831520
  37.7235200  80.3015710  61.6650890  38.0256610  80.2633910  63.1480360
  42.3322930  69.9016110  57.5192090  41.8891080  70.6825650  57.1876610
  42.8907920  70.2246000  58.2263030  46.6192740  72.7684630  63.1227410
  46.1572110  72.9767650  63.9347350  46.2170850  71.9543980  62.8198080
  51.6197250  73.9893580  64.2524070  50.7690840  73.6899330  64.5733140
  51.4599040  74.2335590  63.3407890  48.7146960  75.4895330  66.3522860
  49.0400370  74.6559080  66.0125090  49.5027290  76.0123850  66.5001190
  45.4481750  69.5226810  52.3997920  44.8235930  69.5186680  53.1251230
  45.3611870  68.6557770  52.0033890  44.3698830  70.4463440  59.3781690
  44.6671160  71.3526270  59.2973710  44.9184390  69.9582220  58.7641260
  42.1237150  75.0249680  55.2473340  41.8978070  74.8086850  56.1519960
  41.3429680  75.4578140  54.9019310  49.3534910  75.0313050  53.8463990
  48.7543800  75.7548850  53.6627610  49.9014520  74.9689830  53.0640440
  44.5636360  75.9235260  65.9133610  44.4679960  74.9829990  65.7634010
  45.4068340  76.1450330  65.5181680  47.9599780  73.6676590  55.8767270
  48.3529350  73.9848790  55.0635960  48.3216630  72.7888470  55.9911790
  39.6946900  72.3348930  64.0667390  39.3010290  73.1824140  64.2740170
  39.0065300  71.6975300  64.2576030  46.2691950  72.4183900  67.1364130
  45.5790270  72.2256100  67.7710220  47.0124250  72.7018540  67.6688430
  36.9963950  70.2577390  58.0997470  36.7077000  70.8280250  58.8122450
  37.7409710  69.7781840  58.4628700  37.1834180  74.1997510  49.3100190
  37.1008850  75.1428270  49.4515180  36.8317240  74.0572420  48.4312540
  48.5454920  76.2582340  59.9718050  47.8136040  76.7669150  60.3208150
  48.1479260  75.4412320  59.6706830  44.9832310  72.9336540  58.3770540
  44.9868370  72.4926490  57.5275080  45.8783430  73.2553870  58.4842360
  40.8334690  72.8163030  57.3364750  40.4934740  73.2938260  58.0931800
  40.0712010  72.3628150  56.9765850  45.0452460  73.9348620  51.3677300
  45.1665280  73.8935100  52.3163120  44.6600970  74.7972770  51.2124030
  49.0080830  71.7116020  59.3840990  49.0253570  72.1624670  60.2282840
  48.7596410  70.8121660  59.5974430  44.0573960  76.2449760  50.7660600
  43.4890860  75.7968010  50.1396510  44.7662960  76.6042540  50.2325750
  52.4351580  69.1248200  65.2227370  52.7597350  68.3937860  65.7485350
  52.4708090  68.8061840  64.3208360  39.1343140  80.1461780  64.6427330
  38.7497930  79.5055450  65.2410290  39.4455330  80.8497900  65.2122060
  45.2840280  76.9938320  60.1235950  45.6510410  76.5196890  60.8697290
  45.0945340  77.8679890  60.4644290  38.1480770  71.7382010  56.2529420
  37.8627690  71.3737680  57.0908040  38.0859630  71.0062470  55.6392560
  43.0739650  76.0346960  62.4420160  42.7696720  76.9138940  62.6670520
  44.0286110  76.0946750  62.4777600  41.6021440  80.2407950  53.0387010
  40.8283700  79.7005570  52.8785730  42.3316070  79.7214560  52.7004770
  52.3609420  79.2373310  58.8313400  53.0808540  79.7328600  58.4409510
  52.1591240  78.5591200  58.1867270  47.8219360  70.6311270  52.9742790
  47.0083970  70.1324440  52.8988100  47.6281310  71.4709520  52.5579140
  47.7428220  79.3082370  64.7182400  47.6765530  78.3878040  64.4639990
  47.1133360  79.4057810  65.4327040  50.5367750  75.0030920  51.2704950
  51.4247370  75.3148150  51.0956290  50.5072840  74.1303170  50.8785530
  41.6458840  79.9088330  56.6765820  42.1637510  79.1056590  56.6222710
  41.1942860  79.8467470  57.5182650  46.5328340  81.1754610  51.9493120
  46.8744040  81.9196840  51.4536440  45.7041050  81.4885730  52.3117950
  39.1303380  76.8749700  63.5891520  38.7718320  77.5403550  64.1764860
  38.8357940  76.0433250  63.9604140  42.3316500  77.3333940  66.4731070
  42.0316640  77.4791120  65.5758890  43.1027740  76.7739230  66.3804460
  47.6744950  82.1302940  64.4686200  47.6889490  81.1983900  64.2505110
  46.9670050  82.2162700  65.1075970  52.8082020  76.3142760  50.7384810
  52.7245740  76.7456980  49.8881250  53.5276210  76.7741110  51.1711630
  53.8856160  78.7710280  63.8154780  53.1604350  79.3639060  63.6184170
  54.4131620  78.7633820  63.0168150  53.8369270  83.1685020  53.4666940
  53.1945430  82.5140640  53.7410660  53.4499930  83.5740110  52.6907610
  49.4155750  80.4970450  57.3138630  49.7679570  79.8998580  56.6540000
  48.5318080  80.1714680  57.4846880  45.5019030  81.2568140  54.7209040
  46.1890160  81.8037350  55.1016630  44.7151450  81.8008870  54.7558650
  37.6411430  76.8740960  50.2126120  38.5106280  77.1565760  50.4962040
  37.1501750  77.6876830  50.0974930  44.8046240  78.2614170  54.3334400
  45.2609020  79.0719420  54.5594590  44.4534450  77.9437310  55.1652890
  47.1078850  83.7720510  61.5626700  47.7521070  83.9779890  62.2400120
  47.4708290  83.0108910  61.1097550  40.7058020  68.6051820  54.8056920
  40.5772650  68.5969720  55.7541840  39.8820040  68.9434910  54.4547930
  48.3810930  81.7752860  60.2804150  49.0233160  81.0746020  60.3936320
  48.9060280  82.5551300  60.1001040  52.2266650  82.0601480  50.0043290
  52.0004230  81.3431920  50.5967930  51.8362850  81.8113920  49.1665040
  50.1548550  82.5747760  63.4840210  50.4904790  83.1614450  64.1618130
  49.2348890  82.4440470  63.7138000  38.0082680  86.0868340  50.7787750
  38.3680320  86.6857680  50.1245020  37.8675020  86.6328230  51.5522780
  37.7051950  70.3642940  64.2663620  36.9910470  70.5639860  64.8716230
  38.1246990  69.5882510  64.6378420  51.8082900  79.9773420  51.6657450
  51.5204600  80.4386110  52.4535330  52.6035070  79.5171190  51.9341670
  37.9924540  84.3523200  65.2530150  38.1015660  83.4117940  65.1125540
  37.3405100  84.6177950  64.6043880  45.9837130  82.6239090  66.6528270
  45.6634000  81.9048330  67.1973960  45.3095490  83.2994160  66.7264330
  44.0251300  83.4699540  51.5961420  44.0161400  84.2029230  50.9805930
  43.1049660  83.2231120  51.6888380  39.6257940  78.6914430  52.3408180
  39.0185890  79.4313330  52.3503480  40.1007290  78.7813790  51.5146380
  49.1990730  72.8565250  62.0165070  49.5671550  72.0360460  62.3444640
  48.3388930  72.9167140  62.4320720  52.5652760  71.8122190  52.8252630
  51.9365920  71.9167860  52.1110860  52.0704680  72.0318970  53.6146510
  47.0110900  83.5327780  50.2586610  47.1122880  83.3291770  49.3288590
  46.1112640  83.2786060  50.4634390  44.5336790  74.0908140  54.2410510
  43.8252940  74.5594480  54.6824120  44.8181270  73.4330150  54.8755700
  46.1592720  75.5104840  62.2403040  46.6577970  75.9850660  62.9054890
  46.3015670  74.5868360  62.4473070  48.5652220  70.8158800  55.6806300
  48.4420000  70.8344930  54.7315810  49.5136780  70.8637740  55.8004700
  45.6529010  86.0514100  54.9534280  45.9070510  86.0135490  54.0313650
  44.7041490  85.9247430  54.9462530  42.7371810  72.3993220  51.6161220
  43.5862340  72.8363370  51.5501410  42.3703080  72.7113480  52.4433280
  53.3659580  71.7272800  63.0831430  52.8633180  72.4678200  63.4225240
  54.1816240  72.1156800  62.7668220  51.6581590  76.9705980  56.5292790
  50.7171730  76.9856210  56.7040480  51.9725660  76.1841940  56.9753090
  41.6363230  78.6525580  50.0896750  42.4026500  78.5406940  50.6522180
  41.7137920  77.9563550  49.4373520  40.3309990  76.0850650  50.7729640
  40.4113580  75.1378160  50.8847040  41.2229740  76.4157530  50.8790300
  53.6607170  84.1414830  58.2047050  53.7854590  84.9646000  58.6770860
  54.5272730  83.9305560  57.8571200  41.1324700  86.2346040  57.8764180
  41.8687180  85.6861500  58.1472750  41.5165620  87.1002050  57.7370170
  38.0170180  82.3019610  53.7505690  37.0909960  82.5440750  53.7411100
  38.4826610  83.1293870  53.6290440  40.1382980  85.4192110  67.0649760
  40.9395710  85.7404160  67.4785160  39.6234800  85.0587690  67.7869670
  44.2427010  85.4076350  49.6989750  45.0355620  85.6965180  49.2471540
  43.7231360  84.9768520  49.0202230  48.9747610  81.5271980  67.0125170
  48.3685770  81.5503580  66.2720920  48.6701720  80.7955020  67.5492420
  50.4047980  85.2552270  65.6234580  51.3569730  85.1710290  65.5734820
  50.2576200  85.9193980  66.2968370  53.2957180  84.6346480  51.1226490
  53.0098690  84.2211620  50.3080670  53.0976730  85.5634190  51.0027010
  37.8580790  77.9065570  66.0085810  38.3619810  77.3272850  66.5802040
  37.1188210  78.1905800  66.5462180  44.7604410  80.6279760  49.5632100
  44.6555050  80.0132110  50.2893480  44.5928630  80.1045650  48.7795110
  44.9118730  79.3136560  65.5421330  44.1464400  79.8821560  65.4576000
  45.0934690  79.0212770  64.6489560  48.0007140  79.6899790  50.1674090
  47.4517240  80.1369090  50.8116830  48.6226400  79.1849040  50.6911760
  52.0542080  81.0441890  66.0996350  52.7951550  81.3817650  65.5963810
  51.2914760  81.2133950  65.5466120  39.8903870  76.0495160  66.9035880
  39.9309210  75.7509030  67.8121110  40.7449370  76.4502770  66.7443400
  43.6682260  78.6490710  52.0639390  44.0898680  78.4830580  52.9070780
  43.7933100  77.8390940  51.5694530  41.8309680  74.6287260  64.8710370
  41.3006140  74.1378210  64.2433710  42.4997750  75.0571460  64.3368300
  46.1809900  77.6728320  49.3116490  46.7015560  76.9577340  48.9457640
  46.8278300  78.3114190  49.6117000  50.7287740  79.0956720  64.6351560
  51.1428760  79.2501800  65.4841980  49.7938740  79.2211940  64.7977340
  51.2009910  76.4352880  66.6390710  51.7830680  75.6805200  66.5511190
  51.3771680  76.9660320  65.8622190  42.3181980  71.5949630  64.9507660
  42.2238850  70.9770380  64.2258530  41.7379370  72.3215920  64.7237570
  45.0843420  70.1522870  61.9835050  44.6360720  70.1747130  61.1380600
  44.4508620  69.7541890  62.5805350  45.4902970  79.0477200  62.6047490
  45.9091080  79.8909930  62.4323730  44.5711600  79.1849240  62.3754270
  47.8266870  76.7793380  63.9885330  47.9463080  76.1834520  64.7280170
  48.6860870  76.8163070  63.5686630  50.1654770  77.3330570  62.5647840
  49.6389990  77.8573190  61.9612980  50.5086110  77.9657960  63.1957570
  42.5641160  74.7223940  49.0097550  42.3630220  73.8591300  49.3710890
  42.3933210  74.6357300  48.0719150  43.3410390  85.3530210  63.7205220
  42.8031480  86.0776270  63.4013920  43.5944350  84.8760550  62.9302560
  44.5935640  73.3214730  65.2461150  45.1835330  73.0130580  65.9338970
  43.7755880  72.8494480  65.4021050  49.4129070  72.9380540  65.4794170
  48.7244590  72.2762080  65.4144160  50.1335090  72.4918810  65.9242630
  50.0429470  69.5332170  51.5384430  50.3231760  68.6900070  51.8943850
  49.2695200  69.7655280  52.0523180  41.3623960  71.8224560  48.9975430
  41.6649860  71.8291990  48.0894580  42.1018550  71.4722420  49.4943090
  46.1972600  86.5881420  63.9791870  46.1231300  87.4916560  64.2864240
  45.2951440  86.2693320  63.9513940  44.5808890  70.7659180  49.9831630
  44.2330890  70.0883170  49.4034080  44.7821660  70.3048690  50.7975020
  46.7457930  85.7539930  51.6018230  47.6408720  86.0924900  51.6236990
  46.7775560  85.0319340  50.9742510  40.3854090  81.1266980  49.8305230
  40.8228960  81.6696650  50.4862810  40.8701820  80.3013930  49.8401570
  37.5999890  83.9156010  57.2825490  37.9302900  83.0477070  57.0504130
  38.0290890  84.1214530  58.1130450  42.1961810  82.2465020  54.9427460
  41.8957350  82.1229990  55.8431370  42.0899300  81.3873610  54.5343190
  38.0890100  84.7826600  60.0207120  37.6521090  84.9627400  60.8531270
  38.6567780  85.5401220  59.8788840  53.7252280  84.2843600  64.3084430
  53.1254270  84.3436160  63.5648350  53.8546180  83.3448580  64.4381280
  54.9653730  82.0261420  49.6454140  54.1346690  82.0938070  50.1161370
  55.1425560  82.9165540  49.3421000  54.4210190  78.7708900  52.1488340
  55.1829100  79.3405550  52.2548030  54.4364560  78.2036100  52.9196650
  37.9214530  77.2946830  56.3796000  37.2663370  77.0258470  55.7355700
  38.7592480  77.1851310  55.9297980  55.4270160  79.6259000  56.9930270
  55.7978990  78.8426320  56.5866240  56.0672090  80.3148100  56.8147570
  52.4103920  81.0095580  62.4060590  51.5963760  81.4392740  62.6686380
  52.8178120  81.6213990  61.7929640  54.4729360  79.0643270  49.3060860
  54.7478200  79.9722150  49.1780080  54.2840100  79.0005800  50.2422850
  50.8704970  72.0888120  50.6014490  51.2889850  71.9019100  49.7611150
  50.5641030  71.2367170  50.9117420  54.3694700  77.0012260  54.2990290
  53.9938300  76.2340190  53.8671580  53.6397820  77.3834960  54.7865220
  38.9590460  77.6799400  60.9199340  39.3263500  77.5926800  61.7995360
  38.3901280  76.9165950  60.8206200  53.7594320  76.1483780  63.9329810
  53.5280410  75.9196530  63.0327760  54.0198870  77.0683330  63.8874700
  38.5106460  74.5908490  64.8257760  37.6162510  74.5575250  65.1651470
  39.0504010  74.7895280  65.5909010  52.1982390  71.3740210  66.7109510
  53.0752570  71.3823610  67.0943510  52.2103230  70.6371050  66.1001860
  37.1352610  74.5045760  52.3221330  36.2316690  74.7675960  52.1472990
  37.6193230  74.7756930  51.5421290  53.6445660  75.2269750  57.5997530
  54.1683140  74.7332400  56.9687700  54.2305080  75.3620110  58.3445100
  53.8235380  75.3109620  61.1217080  52.8738090  75.2773160  61.2362070
  54.0048390  76.2209730  60.8866850  39.6779820  73.5611300  50.2315710
  40.3871520  73.1394520  49.7462990  38.9619760  73.6286530  49.5999060
  39.3253980  69.6150630  49.2718360  40.0482110  70.1559570  49.5899580
  39.5978500  69.3414050  48.3959900  53.1345630  74.4843100  53.5389940
  53.6304750  74.2513970  54.3238820  52.9361700  73.6454940  53.1227580
  39.0146170  68.8656820  59.1740980  39.6622360  68.3154200  58.7336140
  39.4348010  69.1199970  59.9956790  54.5632790  73.1204050  56.0727620
  54.4532070  72.9660090  57.0109890  55.3240380  72.5924990  55.8303030
  52.9098510  69.0598180  62.5310620  53.5470730  69.6732320  62.8969810
  53.0573400  69.0958840  61.5859850  55.4523060  70.9511970  49.3133760
  56.3772370  70.8193150  49.1052050  55.4298850  71.0304790  50.2670210
  55.5261550  71.7222630  51.9390470  54.7313050  71.6567750  52.4683380
  55.7304830  72.6573270  51.9275820  52.4679970  85.7614180  55.9328860
  53.0639040  85.4398750  55.2563280  52.7258120  85.2886000  56.7242130
  38.7678170  69.0212490  61.9166300  38.4192990  69.4776310  62.6824480
  38.4365870  68.1269620  61.9988730  40.3742540  82.1932090  66.0819490
  40.3312170  81.8225000  66.9633950  40.5053550  83.1309660  66.2221310
  44.0748570  83.7491680  61.6829210  43.8339930  84.0166240  60.7959730
  45.0151210  83.9197410  61.7380070  46.2802990  70.2124370  65.4385720
  46.2191880  70.8046200  66.1881130  47.2203370  70.1050330  65.2935980
  48.9177550  69.8694430  65.0778010  49.5317960  70.1873720  64.4159090
  49.4627110  69.3843020  65.6973870  55.3352730  85.7686060  62.4839850
  54.8411010  86.1654930  61.7666980  54.7266020  85.1435270  62.8777130
  39.4398810  68.5488690  65.1917070  39.9881800  68.3676740  64.4283180
  39.5054120  67.7582800  65.7273380  40.2130570  85.1394340  63.2017270
  39.6190890  85.0079040  63.9407310  40.2054410  84.3032480  62.7359370
  49.6585590  68.4326570  61.4047300  48.7845430  68.7661680  61.2020230
  49.5496340  67.9599750  62.2299170  50.5657570  70.6397440  62.7889020
  50.2370930  69.8249200  62.4090750  51.5139870  70.5967250  62.6654710
  53.0192180  86.4109480  59.7626590  52.5595150  87.1625290  59.3884610
  52.3904640  85.6915950  59.7041390  39.8442800  82.5052720  62.1525310
  39.1176860  81.8858010  62.0851260  39.9051950  82.8993330  61.2823390
  43.4487900  84.7197720  58.9374720  43.9652920  84.1085080  58.4122980
  44.0985280  85.2226500  59.4285730  46.1883400  85.6106210  59.7643700
  46.4761210  85.3560510  58.8876710  46.7006620  85.0583570  60.3549270
  47.4060410  69.3496410  60.3440210  46.6232200  69.8241910  60.6236970
  47.1123340  68.4451240  60.2353390  51.9581480  70.0519510  58.3889300
  52.3989570  69.9964610  57.5410900  51.6889070  70.9677520  58.4599480
  53.8220050  69.6834750  56.3998120  53.7608450  68.7395970  56.2529140
  54.6012080  69.7914840  56.9451580  38.1272800  85.8227110  55.3622070
  37.9594840  85.1897790  56.0603960  37.2607310  86.0286510  55.0116260
  38.7500820  69.6543890  52.8653930  39.5080180  69.7672770  52.2917960
  38.2877990  70.4913090  52.8197360  45.2914630  71.7683160  55.8556240
  44.4789140  71.3940050  55.5152120  45.7956270  71.0128240  56.1577430
  49.7939610  68.4325610  57.0939310  50.3968980  69.0045820  57.5687830
  49.0532600  68.9965050  56.8713210  52.9374210  68.8347170  52.3679590
  53.1324840  69.7330620  52.6347020  52.1504080  68.6034250  52.8612540
  39.7335500  84.5160340  52.8072210  39.2083120  84.8968370  52.1034170
  39.6580080  85.1411110  53.5281920  41.1225970  70.1807940  51.4055900
  41.6518730  69.3937740  51.2763850  41.7554290  70.8599130  51.6391430
  43.3163810  69.9183080  54.4601290  42.6866550  69.2170390  54.6271420
  42.7768950  70.6787210  54.2434450  46.2555760  86.5322310  67.1311900
  47.1823070  86.2966580  67.1747860  46.2406190  87.3594310  66.6497930
  54.4900820  86.0747880  54.1286150  54.6653010  85.3885620  53.4847070
  53.7922390  86.5994930  53.7362820  43.4419370  69.1967060  66.8953780
  43.1603640  69.7000660  66.1314600  43.8239070  68.3988810  66.5295910
  42.3328470  86.4642720  51.6821460  43.0647290  86.1802000  51.1345350
  42.5922140  86.2256000  52.5720840  41.4943260  82.5807450  51.6867790
  40.8652140  83.0492550  52.2353620  41.6091090  81.7356670  52.1213980
  50.0434830  68.6120640  67.4734250  49.9300280  68.9315250  68.3685770
  50.8604570  69.0133150  67.1771530  52.8233320  85.7592170  66.9552940
  53.6158640  85.2641400  66.7478900  53.1166470  86.4382310  67.5628550
  48.9492980  76.6313110  37.8368990  48.8687030  75.7167720  37.5660700
  48.5357400  77.1280180  37.1308700  47.0811020  78.4092130  39.7178260
  46.3053120  77.9292570  40.0076830  47.7323950  77.7297780  39.5434420
  41.0976850  78.7211940  40.5954020  40.2661730  78.4660650  40.9950530
  41.7057830  78.7922710  41.3311940  51.1018450  82.8152320  38.4977390
  50.6399980  82.0439560  38.8264560  51.9144000  82.8418390  39.0029840
  41.0778110  82.7552030  40.7912040  41.3806150  81.8649770  40.6122260
  41.8221700  83.3122250  40.5634290  39.5068800  73.6813830  34.3796410
  38.6185500  74.0229800  34.2776290  39.7909990  73.4814150  33.4877240
  37.4701810  76.2819480  40.2636110  38.0417920  75.5141680  40.2639750
  37.4703350  76.5808240  39.3542720  47.3281760  85.1010330  38.1181380
  46.7093200  85.5567830  37.5475820  48.1833540  85.2561790  37.7171080
  46.5220010  81.0849320  39.7248420  46.4528290  80.1439260  39.5637550
  47.2839870  81.1750730  40.2970990  38.7126680  71.6903840  42.0505040
  38.5329520  70.7929590  42.3307800  38.3106760  72.2375710  42.7251990
  47.5525180  73.8919700  39.9517350  47.9290000  73.0191580  39.8391020
  47.4544690  74.2278400  39.0607790  41.6830190  72.2645330  35.4134790
  41.7896940  73.1649060  35.7203550  40.7722550  72.2163300  35.1229440
  51.3349300  71.3870140  36.8845690  52.1558920  70.8966710  36.9271170
  51.3683380  71.9767800  37.6377530  39.3313350  74.1864340  40.6587380
  40.0123460  74.4502710  41.2774780  39.0161400  73.3465210  40.9925390
  43.5237920  75.2331700  39.7459970  44.0316140  75.7312670  40.3864990
  44.0551160  74.4566900  39.5699330  55.6248850  73.4036890  43.4489320
  54.9201020  73.7918600  42.9304430  55.8906770  74.0987180  44.0510250
  41.8074020  69.8730260  44.0123390  41.8092460  70.3902650  43.2069290
  40.9778330  69.3960440  43.9893320  48.1945110  79.9849570  35.5113290
  47.5762380  80.4499020  34.9476010  48.7068360  80.6777050  35.9282800
  43.0576870  79.5125440  42.1896890  42.7246250  80.1394360  42.8317960
  43.2343550  80.0387320  41.4098560  51.5710780  73.3270520  39.6573230
  50.8666350  73.6155410  40.2376340  51.9322940  74.1370630  39.2972790
  41.4889350  71.5840220  42.0193840  41.8306160  72.4282270  41.7247710
  40.5505160  71.7323960  42.1359180  42.2695970  81.4806240  44.0046070
  42.8869970  82.1557320  43.7230520  41.4089090  81.8894220  43.9133570
  37.5628310  80.6706100  32.8852920  37.1856290  81.1593200  32.1537820
  37.8201380  81.3431380  33.5159450  53.1873560  82.9445650  41.9200710
  52.5037080  83.6144760  41.9117380  53.7267850  83.1426300  41.1545570
  54.6397700  72.7725310  40.0482440  53.6922610  72.8064290  40.1797870
  54.9647690  73.5864260  40.4331800  45.1717240  69.0722490  38.3438430
  45.4792220  68.5169380  37.6273930  44.2417940  69.2066950  38.1611420
  50.7232300  84.7889780  40.6345890  50.7359460  84.3852070  39.7668150
  50.1707520  85.5637070  40.5307320  52.0177720  81.5106000  35.7236060
  51.9074050  80.5680330  35.8485480  52.0145970  81.8721640  36.6098820
  50.1217740  79.6919620  41.9628500  50.5386530  79.4779730  41.1281960
  50.8457560  79.9492410  42.5337120  47.5598000  77.1371320  35.0798550
  46.6327280  77.0708700  35.3087020  47.7122820  78.0751450  34.9653790
  47.5467080  73.4088320  32.0765710  46.6070750  73.5702280  32.1618170
  47.8650340  74.1274000  31.5301700  54.0679840  78.0906840  42.0544740
  53.2398470  78.1599930  41.5794870  54.6630320  78.6761150  41.5860570
  51.5895290  78.6991620  35.5833800  50.9707710  78.3611170  34.9360100
  51.5719740  78.0551380  36.2912990  51.0321850  74.8776160  42.9999610
  50.6193030  75.7029870  43.2539600  50.2997800  74.2921200  42.8075970
  43.1654640  77.6636060  37.8618280  42.7611640  76.9513310  37.3664180
  43.2517760  77.3189300  38.7506320  43.6336340  81.3503620  40.0257490
  43.3364630  80.7449090  39.3465270  44.5836160  81.3880930  39.9146850
  41.8783260  74.4379270  41.6417320  42.4297850  74.5474610  40.8670570
  42.3926770  74.8116870  42.3572550  51.7221950  84.9235490  43.6880590
  51.2452510  85.7307680  43.4953200  51.0383740  84.2713820  43.8406800
  42.7254770  81.0885310  46.6765290  41.8283300  81.3125280  46.9238690
  42.7507640  81.2120250  45.7276690  49.7659990  77.9378430  32.5906550
  50.2053270  77.1000860  32.4444370  50.4788410  78.5707830  32.6770690
  41.5525990  77.9598630  45.2522660  41.4133760  78.8321430  45.6210060
  40.6707350  77.6171440  45.1070600  47.8755370  82.8774500  36.5587790
  48.3151280  83.6198830  36.1443180  47.8142260  83.1201070  37.4826750
  43.3506340  83.9020330  47.4607810  43.3221770  84.3063280  46.5936240
  43.1871310  82.9730690  47.2979410  53.3477130  69.1921240  30.9047590
  53.0349790  69.2848070  31.8046660  54.1089600  69.7702270  30.8545020
  39.8659270  76.5581040  35.3624930  39.7456870  77.2843130  34.7506200
  39.5560160  75.7883950  34.8852840  55.3021160  84.6847430  48.7571980
  55.7780880  85.1630320  49.4361060  55.9228320  84.6164920  48.0317480
  37.5044640  79.7296180  41.1693570  37.5825060  79.8644950  40.2249290
  38.1186320  79.0212070  41.3621690  38.7492270  81.4296370  37.5799750
  38.3420350  81.5710960  36.7253350  39.6405280  81.1456530  37.3770960
  54.7054410  81.8760280  45.9171990  54.8317470  81.6372160  44.9989170
  54.7475790  81.0444820  46.3894070  48.5671150  85.5788280  44.4866800
  49.0815820  85.4896290  45.2889230  47.7240230  85.9247980  44.7794710
  50.5425550  85.8643620  33.9150800  50.3826690  85.5746560  34.8132630
  50.3772260  85.0883750  33.3796030  43.0213930  85.6442150  35.6922420
  42.8456410  84.7277690  35.4790220  42.1669670  86.0029440  35.9320220
  50.2451680  83.3731180  32.4748800  49.5516840  83.3708470  31.8151080
  50.9874540  82.9490500  32.0442970  49.8101610  84.9993890  36.5497290
  50.2658560  84.2183270  36.8635910  50.1494130  85.7100710  37.0938470
  54.5578420  73.9292740  46.8821730  53.9422690  74.4372410  46.3537190
  54.2374840  73.0291070  46.8247670  37.5604160  80.7710350  43.7088030
  37.7235200  80.3015710  42.8907400  38.0256610  80.2633910  44.3736870
  42.3322930  69.9016110  38.7448600  41.8891080  70.6825650  38.4133120
  42.8907920  70.2246000  39.4519540  46.6192740  72.7684630  44.3483920
  46.1572110  72.9767650  45.1603860  46.2170850  71.9543980  44.0454590
  51.6197250  73.9893580  45.4780580  50.7690840  73.6899330  45.7989650
  51.4599040  74.2335590  44.5664400  48.7146960  75.4895330  47.5779370
  49.0400370  74.6559080  47.2381600  49.5027290  76.0123850  47.7257700
  45.4481750  69.5226810  33.6254430  44.8235930  69.5186680  34.3507740
  45.3611870  68.6557770  33.2290400  44.3698830  70.4463440  40.6038200
  44.6671160  71.3526270  40.5230220  44.9184390  69.9582220  39.9897770
  42.1237150  75.0249680  36.4729850  41.8978070  74.8086850  37.3776470
  41.3429680  75.4578140  36.1275820  49.3534910  75.0313050  35.0720500
  48.7543800  75.7548850  34.8884120  49.9014520  74.9689830  34.2896950
  44.5636360  75.9235260  47.1390120  44.4679960  74.9829990  46.9890520
  45.4068340  76.1450330  46.7438190  47.9599780  73.6676590  37.1023780
  48.3529350  73.9848790  36.2892470  48.3216630  72.7888470  37.2168300
  39.6946900  72.3348930  45.2923900  39.3010290  73.1824140  45.4996680
  39.0065300  71.6975300  45.4832540  46.2691950  72.4183900  48.3620640
  45.5790270  72.2256100  48.9966730  47.0124250  72.7018540  48.8944940
  36.9963950  70.2577390  39.3253980  36.7077000  70.8280250  40.0378960
  37.7409710  69.7781840  39.6885210  37.1834180  74.1997510  30.5356700
  37.1008850  75.1428270  30.6771690  36.8317240  74.0572420  29.6569050
  48.5454920  76.2582340  41.1974560  47.8136040  76.7669150  41.5464660
  48.1479260  75.4412320  40.8963340  44.9832310  72.9336540  39.6027050
  44.9868370  72.4926490  38.7531590  45.8783430  73.2553870  39.7098870
  40.8334690  72.8163030  38.5621260  40.4934740  73.2938260  39.3188310
  40.0712010  72.3628150  38.2022360  45.0452460  73.9348620  32.5933810
  45.1665280  73.8935100  33.5419630  44.6600970  74.7972770  32.4380540
  49.0080830  71.7116020  40.6097500  49.0253570  72.1624670  41.4539350
  48.7596410  70.8121660  40.8230940  44.0573960  76.2449760  31.9917110
  43.4890860  75.7968010  31.3653020  44.7662960  76.6042540  31.4582260
  52.4351580  69.1248200  46.4483880  52.7597350  68.3937860  46.9741860
  52.4708090  68.8061840  45.5464870  39.1343140  80.1461780  45.8683840
  38.7497930  79.5055450  46.4666800  39.4455330  80.8497900  46.4378570
  45.2840280  76.9938320  41.3492460  45.6510410  76.5196890  42.0953800
  45.0945340  77.8679890  41.6900800  38.1480770  71.7382010  37.4785930
  37.8627690  71.3737680  38.3164550  38.0859630  71.0062470  36.8649070
  43.0739650  76.0346960  43.6676670  42.7696720  76.9138940  43.8927030
  44.0286110  76.0946750  43.7034110  41.6021440  80.2407950  34.2643520
  40.8283700  79.7005570  34.1042240  42.3316070  79.7214560  33.9261280
  52.3609420  79.2373310  40.0569910  53.0808540  79.7328600  39.6666020
  52.1591240  78.5591200  39.4123780  47.8219360  70.6311270  34.1999300
  47.0083970  70.1324440  34.1244610  47.6281310  71.4709520  33.7835650
  47.7428220  79.3082370  45.9438910  47.6765530  78.3878040  45.6896500
  47.1133360  79.4057810  46.6583550  50.5367750  75.0030920  32.4961460
  51.4247370  75.3148150  32.3212800  50.5072840  74.1303170  32.1042040
  41.6458840  79.9088330  37.9022330  42.1637510  79.1056590  37.8479220
  41.1942860  79.8467470  38.7439160  46.5328340  81.1754610  33.1749630
  46.8744040  81.9196840  32.6792950  45.7041050  81.4885730  33.5374460
  39.1303380  76.8749700  44.8148030  38.7718320  77.5403550  45.4021370
  38.8357940  76.0433250  45.1860650  42.3316500  77.3333940  47.6987580
  42.0316640  77.4791120  46.8015400  43.1027740  76.7739230  47.6060970
  47.6744950  82.1302940  45.6942710  47.6889490  81.1983900  45.4761620
  46.9670050  82.2162700  46.3332480  52.8082020  76.3142760  31.9641320
  52.7245740  76.7456980  31.1137760  53.5276210  76.7741110  32.3968140
  53.8856160  78.7710280  45.0411290  53.1604350  79.3639060  44.8440680
  54.4131620  78.7633820  44.2424660  53.8369270  83.1685020  34.6923450
  53.1945430  82.5140640  34.9667170  53.4499930  83.5740110  33.9164120
  49.4155750  80.4970450  38.5395140  49.7679570  79.8998580  37.8796510
  48.5318080  80.1714680  38.7103390  45.5019030  81.2568140  35.9465550
  46.1890160  81.8037350  36.3273140  44.7151450  81.8008870  35.9815160
  37.6411430  76.8740960  31.4382630  38.5106280  77.1565760  31.7218550
  37.1501750  77.6876830  31.3231440  44.8046240  78.2614170  35.5590910
  45.2609020  79.0719420  35.7851100  44.4534450  77.9437310  36.3909400
  47.1078850  83.7720510  42.7883210  47.7521070  83.9779890  43.4656630
  47.4708290  83.0108910  42.3354060  40.7058020  68.6051820  36.0313430
  40.5772650  68.5969720  36.9798350  39.8820040  68.9434910  35.6804440
  48.3810930  81.7752860  41.5060660  49.0233160  81.0746020  41.6192830
  48.9060280  82.5551300  41.3257550  52.2266650  82.0601480  31.2299800
  52.0004230  81.3431920  31.8224440  51.8362850  81.8113920  30.3921550
  50.1548550  82.5747760  44.7096720  50.4904790  83.1614450  45.3874640
  49.2348890  82.4440470  44.9394510  38.0082680  86.0868340  32.0044260
  38.3680320  86.6857680  31.3501530  37.8675020  86.6328230  32.7779290
  37.7051950  70.3642940  45.4920130  36.9910470  70.5639860  46.0972740
  38.1246990  69.5882510  45.8634930  51.8082900  79.9773420  32.8913960
  51.5204600  80.4386110  33.6791840  52.6035070  79.5171190  33.1598180
  37.9924540  84.3523200  46.4786660  38.1015660  83.4117940  46.3382050
  37.3405100  84.6177950  45.8300390  45.9837130  82.6239090  47.8784780
  45.6634000  81.9048330  48.4230470  45.3095490  83.2994160  47.9520840
  44.0251300  83.4699540  32.8217930  44.0161400  84.2029230  32.2062440
  43.1049660  83.2231120  32.9144890  39.6257940  78.6914430  33.5664690
  39.0185890  79.4313330  33.5759990  40.1007290  78.7813790  32.7402890
  49.1990730  72.8565250  43.2421580  49.5671550  72.0360460  43.5701150
  48.3388930  72.9167140  43.6577230  52.5652760  71.8122190  34.0509140
  51.9365920  71.9167860  33.3367370  52.0704680  72.0318970  34.8403020
  47.0110900  83.5327780  31.4843120  47.1122880  83.3291770  30.5545100
  46.1112640  83.2786060  31.6890900  44.5336790  74.0908140  35.4667020
  43.8252940  74.5594480  35.9080630  44.8181270  73.4330150  36.1012210
  46.1592720  75.5104840  43.4659550  46.6577970  75.9850660  44.1311400
  46.3015670  74.5868360  43.6729580  48.5652220  70.8158800  36.9062810
  48.4420000  70.8344930  35.9572320  49.5136780  70.8637740  37.0261210
  45.6529010  86.0514100  36.1790790  45.9070510  86.0135490  35.2570160
  44.7041490  85.9247430  36.1719040  42.7371810  72.3993220  32.8417730
  43.5862340  72.8363370  32.7757920  42.3703080  72.7113480  33.6689790
  53.3659580  71.7272800  44.3087940  52.8633180  72.4678200  44.6481750
  54.1816240  72.1156800  43.9924730  51.6581590  76.9705980  37.7549300
  50.7171730  76.9856210  37.9296990  51.9725660  76.1841940  38.2009600
  41.6363230  78.6525580  31.3153260  42.4026500  78.5406940  31.8778690
  41.7137920  77.9563550  30.6630030  40.3309990  76.0850650  31.9986150
  40.4113580  75.1378160  32.1103550  41.2229740  76.4157530  32.1046810
  53.6607170  84.1414830  39.4303560  53.7854590  84.9646000  39.9027370
  54.5272730  83.9305560  39.0827710  41.1324700  86.2346040  39.1020690
  41.8687180  85.6861500  39.3729260  41.5165620  87.1002050  38.9626680
  38.0170180  82.3019610  34.9762200  37.0909960  82.5440750  34.9667610
  38.4826610  83.1293870  34.8546950  40.1382980  85.4192110  48.2906270
  40.9395710  85.7404160  48.7041670  39.6234800  85.0587690  49.0126180
  44.2427010  85.4076350  30.9246260  45.0355620  85.6965180  30.4728050
  43.7231360  84.9768520  30.2458740  48.9747610  81.5271980  48.2381680
  48.3685770  81.5503580  47.4977430  48.6701720  80.7955020  48.7748930
  50.4047980  85.2552270  46.8491090  51.3569730  85.1710290  46.7991330
  50.2576200  85.9193980  47.5224880  53.2957180  84.6346480  32.3483000
  53.0098690  84.2211620  31.5337180  53.0976730  85.5634190  32.2283520
  37.8580790  77.9065570  47.2342320  38.3619810  77.3272850  47.8058550
  37.1188210  78.1905800  47.7718690  44.7604410  80.6279760  30.7888610
  44.6555050  80.0132110  31.5149990  44.5928630  80.1045650  30.0051620
  44.9118730  79.3136560  46.7677840  44.1464400  79.8821560  46.6832510
  45.0934690  79.0212770  45.8746070  48.0007140  79.6899790  31.3930600
  47.4517240  80.1369090  32.0373340  48.6226400  79.1849040  31.9168270
  52.0542080  81.0441890  47.3252860  52.7951550  81.3817650  46.8220320
  51.2914760  81.2133950  46.7722630  39.8903870  76.0495160  48.1292390
  39.9309210  75.7509030  49.0377620  40.7449370  76.4502770  47.9699910
  43.6682260  78.6490710  33.2895900  44.0898680  78.4830580  34.1327290
  43.7933100  77.8390940  32.7951040  41.8309680  74.6287260  46.0966880
  41.3006140  74.1378210  45.4690220  42.4997750  75.0571460  45.5624810
  46.1809900  77.6728320  30.5373000  46.7015560  76.9577340  30.1714150
  46.8278300  78.3114190  30.8373510  50.7287740  79.0956720  45.8608070
  51.1428760  79.2501800  46.7098490  49.7938740  79.2211940  46.0233850
  51.2009910  76.4352880  47.8647220  51.7830680  75.6805200  47.7767700
  51.3771680  76.9660320  47.0878700  42.3181980  71.5949630  46.1764170
  42.2238850  70.9770380  45.4515040  41.7379370  72.3215920  45.9494080
  45.0843420  70.1522870  43.2091560  44.6360720  70.1747130  42.3637110
  44.4508620  69.7541890  43.8061860  45.4902970  79.0477200  43.8304000
  45.9091080  79.8909930  43.6580240  44.5711600  79.1849240  43.6010780
  47.8266870  76.7793380  45.2141840  47.9463080  76.1834520  45.9536680
  48.6860870  76.8163070  44.7943140  50.1654770  77.3330570  43.7904350
  49.6389990  77.8573190  43.1869490  50.5086110  77.9657960  44.4214080
  42.5641160  74.7223940  30.2354060  42.3630220  73.8591300  30.5967400
  42.3933210  74.6357300  29.2975660  43.3410390  85.3530210  44.9461730
  42.8031480  86.0776270  44.6270430  43.5944350  84.8760550  44.1559070
  44.5935640  73.3214730  46.4717660  45.1835330  73.0130580  47.1595480
  43.7755880  72.8494480  46.6277560  49.4129070  72.9380540  46.7050680
  48.7244590  72.2762080  46.6400670  50.1335090  72.4918810  47.1499140
  50.0429470  69.5332170  32.7640940  50.3231760  68.6900070  33.1200360
  49.2695200  69.7655280  33.2779690  41.3623960  71.8224560  30.2231940
  41.6649860  71.8291990  29.3151090  42.1018550  71.4722420  30.7199600
  46.1972600  86.5881420  45.2048380  46.1231300  87.4916560  45.5120750
  45.2951440  86.2693320  45.1770450  44.5808890  70.7659180  31.2088140
  44.2330890  70.0883170  30.6290590  44.7821660  70.3048690  32.0231530
  46.7457930  85.7539930  32.8274740  47.6408720  86.0924900  32.8493500
  46.7775560  85.0319340  32.1999020  40.3854090  81.1266980  31.0561740
  40.8228960  81.6696650  31.7119320  40.8701820  80.3013930  31.0658080
  37.5999890  83.9156010  38.5082000  37.9302900  83.0477070  38.2760640
  38.0290890  84.1214530  39.3386960  42.1961810  82.2465020  36.1683970
  41.8957350  82.1229990  37.0687880  42.0899300  81.3873610  35.7599700
  38.0890100  84.7826600  41.2463630  37.6521090  84.9627400  42.0787780
  38.6567780  85.5401220  41.1045350  53.7252280  84.2843600  45.5340940
  53.1254270  84.3436160  44.7904860  53.8546180  83.3448580  45.6637790
  54.9653730  82.0261420  30.8710650  54.1346690  82.0938070  31.3417880
  55.1425560  82.9165540  30.5677510  54.4210190  78.7708900  33.3744850
  55.1829100  79.3405550  33.4804540  54.4364560  78.2036100  34.1453160
  37.9214530  77.2946830  37.6052510  37.2663370  77.0258470  36.9612210
  38.7592480  77.1851310  37.1554490  55.4270160  79.6259000  38.2186780
  55.7978990  78.8426320  37.8122750  56.0672090  80.3148100  38.0404080
  52.4103920  81.0095580  43.6317100  51.5963760  81.4392740  43.8942890
  52.8178120  81.6213990  43.0186150  54.4729360  79.0643270  30.5317370
  54.7478200  79.9722150  30.4036590  54.2840100  79.0005800  31.4679360
  50.8704970  72.0888120  31.8271000  51.2889850  71.9019100  30.9867660
  50.5641030  71.2367170  32.1373930  54.3694700  77.0012260  35.5246800
  53.9938300  76.2340190  35.0928090  53.6397820  77.3834960  36.0121730
  38.9590460  77.6799400  42.1455850  39.3263500  77.5926800  43.0251870
  38.3901280  76.9165950  42.0462710  53.7594320  76.1483780  45.1586320
  53.5280410  75.9196530  44.2584270  54.0198870  77.0683330  45.1131210
  38.5106460  74.5908490  46.0514270  37.6162510  74.5575250  46.3907980
  39.0504010  74.7895280  46.8165520  52.1982390  71.3740210  47.9366020
  53.0752570  71.3823610  48.3200020  52.2103230  70.6371050  47.3258370
  37.1352610  74.5045760  33.5477840  36.2316690  74.7675960  33.3729500
  37.6193230  74.7756930  32.7677800  53.6445660  75.2269750  38.8254040
  54.1683140  74.7332400  38.1944210  54.2305080  75.3620110  39.5701610
  53.8235380  75.3109620  42.3473590  52.8738090  75.2773160  42.4618580
  54.0048390  76.2209730  42.1123360  39.6779820  73.5611300  31.4572220
  40.3871520  73.1394520  30.9719500  38.9619760  73.6286530  30.8255570
  39.3253980  69.6150630  30.4974870  40.0482110  70.1559570  30.8156090
  39.5978500  69.3414050  29.6216410  53.1345630  74.4843100  34.7646450
  53.6304750  74.2513970  35.5495330  52.9361700  73.6454940  34.3484090
  39.0146170  68.8656820  40.3997490  39.6622360  68.3154200  39.9592650
  39.4348010  69.1199970  41.2213300  54.5632790  73.1204050  37.2984130
  54.4532070  72.9660090  38.2366400  55.3240380  72.5924990  37.0559540
  52.9098510  69.0598180  43.7567130  53.5470730  69.6732320  44.1226320
  53.0573400  69.0958840  42.8116360  55.4523060  70.9511970  30.5390270
  56.3772370  70.8193150  30.3308560  55.4298850  71.0304790  31.4926720
  55.5261550  71.7222630  33.1646980  54.7313050  71.6567750  33.6939890
  55.7304830  72.6573270  33.1532330  52.4679970  85.7614180  37.1585370
  53.0639040  85.4398750  36.4819790  52.7258120  85.2886000  37.9498640
  38.7678170  69.0212490  43.1422810  38.4192990  69.4776310  43.9080990
  38.4365870  68.1269620  43.2245240  40.3742540  82.1932090  47.3076000
  40.3312170  81.8225000  48.1890460  40.5053550  83.1309660  47.4477820
  44.0748570  83.7491680  42.9085720  43.8339930  84.0166240  42.0216240
  45.0151210  83.9197410  42.9636580  46.2802990  70.2124370  46.6642230
  46.2191880  70.8046200  47.4137640  47.2203370  70.1050330  46.5192490
  48.9177550  69.8694430  46.3034520  49.5317960  70.1873720  45.6415600
  49.4627110  69.3843020  46.9230380  55.3352730  85.7686060  43.7096360
  54.8411010  86.1654930  42.9923490  54.7266020  85.1435270  44.1033640
  39.4398810  68.5488690  46.4173580  39.9881800  68.3676740  45.6539690
  39.5054120  67.7582800  46.9529890  40.2130570  85.1394340  44.4273780
  39.6190890  85.0079040  45.1663820  40.2054410  84.3032480  43.9615880
  49.6585590  68.4326570  42.6303810  48.7845430  68.7661680  42.4276740
  49.5496340  67.9599750  43.4555680  50.5657570  70.6397440  44.0145530
  50.2370930  69.8249200  43.6347260  51.5139870  70.5967250  43.8911220
  53.0192180  86.4109480  40.9883100  52.5595150  87.1625290  40.6141120
  52.3904640  85.6915950  40.9297900  39.8442800  82.5052720  43.3781820
  39.1176860  81.8858010  43.3107770  39.9051950  82.8993330  42.5079900
  43.4487900  84.7197720  40.1631230  43.9652920  84.1085080  39.6379490
  44.0985280  85.2226500  40.6542240  46.1883400  85.6106210  40.9900210
  46.4761210  85.3560510  40.1133220  46.7006620  85.0583570  41.5805780
  47.4060410  69.3496410  41.5696720  46.6232200  69.8241910  41.8493480
  47.1123340  68.4451240  41.4609900  51.9581480  70.0519510  39.6145810
  52.3989570  69.9964610  38.7667410  51.6889070  70.9677520  39.6855990
  53.8220050  69.6834750  37.6254630  53.7608450  68.7395970  37.4785650
  54.6012080  69.7914840  38.1708090  38.1272800  85.8227110  36.5878580
  37.9594840  85.1897790  37.2860470  37.2607310  86.0286510  36.2372770
  38.7500820  69.6543890  34.0910440  39.5080180  69.7672770  33.5174470
  38.2877990  70.4913090  34.0453870  45.2914630  71.7683160  37.0812750
  44.4789140  71.3940050  36.7408630  45.7956270  71.0128240  37.3833940
  49.7939610  68.4325610  38.3195820  50.3968980  69.0045820  38.7944340
  49.0532600  68.9965050  38.0969720  52.9374210  68.8347170  33.5936100
  53.1324840  69.7330620  33.8603530  52.1504080  68.6034250  34.0869050
  39.7335500  84.5160340  34.0328720  39.2083120  84.8968370  33.3290680
  39.6580080  85.1411110  34.7538430  41.1225970  70.1807940  32.6312410
  41.6518730  69.3937740  32.5020360  41.7554290  70.8599130  32.8647940
  43.3163810  69.9183080  35.6857800  42.6866550  69.2170390  35.8527930
  42.7768950  70.6787210  35.4690960  46.2555760  86.5322310  48.3568410
  47.1823070  86.2966580  48.4004370  46.2406190  87.3594310  47.8754440
  54.4900820  86.0747880  35.3542660  54.6653010  85.3885620  34.7103580
  53.7922390  86.5994930  34.9619330  43.4419370  69.1967060  48.1210290
  43.1603640  69.7000660  47.3571110  43.8239070  68.3988810  47.7552420
  42.3328470  86.4642720  32.9077970  43.0647290  86.1802000  32.3601860
  42.5922140  86.2256000  33.7977350  41.4943260  82.5807450  32.9124300
  40.8652140  83.0492550  33.4610130  41.6091090  81.7356670  33.3470490
  50.0434830  68.6120640  48.6990760  49.9300280  68.9315250  49.5942280
  50.8604570  69.0133150  48.4028040  52.8233320  85.7592170  48.1809450
  53.6158640  85.2641400  47.9735410  53.1166470  86.4382310  48.7885060
  48.9492980  76.6313110  19.0625500  48.8687030  75.7167720  18.7917210
  48.5357400  77.1280180  18.3565210  47.0811020  78.4092130  20.9434770
  46.3053120  77.9292570  21.2333340  47.7323950  77.7297780  20.7690930
  41.0976850  78.7211940  21.8210530  40.2661730  78.4660650  22.2207040
  41.7057830  78.7922710  22.5568450  51.1018450  82.8152320  19.7233900
  50.6399980  82.0439560  20.0521070  51.9144000  82.8418390  20.2286350
  41.0778110  82.7552030  22.0168550  41.3806150  81.8649770  21.8378770
  41.8221700  83.3122250  21.7890800  39.5068800  73.6813830  15.6052920
  38.6185500  74.0229800  15.5032800  39.7909990  73.4814150  14.7133750
  37.4701810  76.2819480  21.4892620  38.0417920  75.5141680  21.4896260
  37.4703350  76.5808240  20.5799230  47.3281760  85.1010330  19.3437890
  46.7093200  85.5567830  18.7732330  48.1833540  85.2561790  18.9427590
  46.5220010  81.0849320  20.9504930  46.4528290  80.1439260  20.7894060
  47.2839870  81.1750730  21.5227500  38.7126680  71.6903840  23.2761550
  38.5329520  70.7929590  23.5564310  38.3106760  72.2375710  23.9508500
  47.5525180  73.8919700  21.1773860  47.9290000  73.0191580  21.0647530
  47.4544690  74.2278400  20.2864300  41.6830190  72.2645330  16.6391300
  41.7896940  73.1649060  16.9460060  40.7722550  72.2163300  16.3485950
  51.3349300  71.3870140  18.1102200  52.1558920  70.8966710  18.1527680
  51.3683380  71.9767800  18.8634040  39.3313350  74.1864340  21.8843890
  40.0123460  74.4502710  22.5031290  39.0161400  73.3465210  22.2181900
  43.5237920  75.2331700  20.9716480  44.0316140  75.7312670  21.6121500
  44.0551160  74.4566900  20.7955840  55.6248850  73.4036890  24.6745830
  54.9201020  73.7918600  24.1560940  55.8906770  74.0987180  25.2766760
  41.8074020  69.8730260  25.2379900  41.8092460  70.3902650  24.4325800
  40.9778330  69.3960440  25.2149830  48.1945110  79.9849570  16.7369800
  47.5762380  80.4499020  16.1732520  48.7068360  80.6777050  17.1539310
  43.0576870  79.5125440  23.4153400  42.7246250  80.1394360  24.0574470
  43.2343550  80.0387320  22.6355070  51.5710780  73.3270520  20.8829740
  50.8666350  73.6155410  21.4632850  51.9322940  74.1370630  20.5229300
  41.4889350  71.5840220  23.2450350  41.8306160  72.4282270  22.9504220
  40.5505160  71.7323960  23.3615690  42.2695970  81.4806240  25.2302580
  42.8869970  82.1557320  24.9487030  41.4089090  81.8894220  25.1390080
  37.5628310  80.6706100  14.1109430  37.1856290  81.1593200  13.3794330
  37.8201380  81.3431380  14.7415960  53.1873560  82.9445650  23.1457220
  52.5037080  83.6144760  23.1373890  53.7267850  83.1426300  22.3802080
  54.6397700  72.7725310  21.2738950  53.6922610  72.8064290  21.4054380
  54.9647690  73.5864260  21.6588310  45.1717240  69.0722490  19.5694940
  45.4792220  68.5169380  18.8530440  44.2417940  69.2066950  19.3867930
  50.7232300  84.7889780  21.8602400  50.7359460  84.3852070  20.9924660
  50.1707520  85.5637070  21.7563830  52.0177720  81.5106000  16.9492570
  51.9074050  80.5680330  17.0741990  52.0145970  81.8721640  17.8355330
  50.1217740  79.6919620  23.1885010  50.5386530  79.4779730  22.3538470
  50.8457560  79.9492410  23.7593630  47.5598000  77.1371320  16.3055060
  46.6327280  77.0708700  16.5343530  47.7122820  78.0751450  16.1910300
  47.5467080  73.4088320  13.3022220  46.6070750  73.5702280  13.3874680
  47.8650340  74.1274000  12.7558210  54.0679840  78.0906840  23.2801250
  53.2398470  78.1599930  22.8051380  54.6630320  78.6761150  22.8117080
  51.5895290  78.6991620  16.8090310  50.9707710  78.3611170  16.1616610
  51.5719740  78.0551380  17.5169500  51.0321850  74.8776160  24.2256120
  50.6193030  75.7029870  24.4796110  50.2997800  74.2921200  24.0332480
  43.1654640  77.6636060  19.0874790  42.7611640  76.9513310  18.5920690
  43.2517760  77.3189300  19.9762830  43.6336340  81.3503620  21.2514000
  43.3364630  80.7449090  20.5721780  44.5836160  81.3880930  21.1403360
  41.8783260  74.4379270  22.8673830  42.4297850  74.5474610  22.0927080
  42.3926770  74.8116870  23.5829060  51.7221950  84.9235490  24.9137100
  51.2452510  85.7307680  24.7209710  51.0383740  84.2713820  25.0663310
  42.7254770  81.0885310  27.9021800  41.8283300  81.3125280  28.1495200
  42.7507640  81.2120250  26.9533200  49.7659990  77.9378430  13.8163060
  50.2053270  77.1000860  13.6700880  50.4788410  78.5707830  13.9027200
  41.5525990  77.9598630  26.4779170  41.4133760  78.8321430  26.8466570
  40.6707350  77.6171440  26.3327110  47.8755370  82.8774500  17.7844300
  48.3151280  83.6198830  17.3699690  47.8142260  83.1201070  18.7083260
  43.3506340  83.9020330  28.6864320  43.3221770  84.3063280  27.8192750
  43.1871310  82.9730690  28.5235920  53.3477130  69.1921240  12.1304100
  53.0349790  69.2848070  13.0303170  54.1089600  69.7702270  12.0801530
  39.8659270  76.5581040  16.5881440  39.7456870  77.2843130  15.9762710
  39.5560160  75.7883950  16.1109350  55.3021160  84.6847430  29.9828490
  55.7780880  85.1630320  30.6617570  55.9228320  84.6164920  29.2573990
  37.5044640  79.7296180  22.3950080  37.5825060  79.8644950  21.4505800
  38.1186320  79.0212070  22.5878200  38.7492270  81.4296370  18.8056260
  38.3420350  81.5710960  17.9509860  39.6405280  81.1456530  18.6027470
  54.7054410  81.8760280  27.1428500  54.8317470  81.6372160  26.2245680
  54.7475790  81.0444820  27.6150580  48.5671150  85.5788280  25.7123310
  49.0815820  85.4896290  26.5145740  47.7240230  85.9247980  26.0051220
  50.5425550  85.8643620  15.1407310  50.3826690  85.5746560  16.0389140
  50.3772260  85.0883750  14.6052540  43.0213930  85.6442150  16.9178930
  42.8456410  84.7277690  16.7046730  42.1669670  86.0029440  17.1576730
  50.2451680  83.3731180  13.7005310  49.5516840  83.3708470  13.0407590
  50.9874540  82.9490500  13.2699480  49.8101610  84.9993890  17.7753800
  50.2658560  84.2183270  18.0892420  50.1494130  85.7100710  18.3194980
  54.5578420  73.9292740  28.1078240  53.9422690  74.4372410  27.5793700
  54.2374840  73.0291070  28.0504180  37.5604160  80.7710350  24.9344540
  37.7235200  80.3015710  24.1163910  38.0256610  80.2633910  25.5993380
  42.3322930  69.9016110  19.9705110  41.8891080  70.6825650  19.6389630
  42.8907920  70.2246000  20.6776050  46.6192740  72.7684630  25.5740430
  46.1572110  72.9767650  26.3860370  46.2170850  71.9543980  25.2711100
  51.6197250  73.9893580  26.7037090  50.7690840  73.6899330  27.0246160
  51.4599040  74.2335590  25.7920910  48.7146960  75.4895330  28.8035880
  49.0400370  74.6559080  28.4638110  49.5027290  76.0123850  28.9514210
  45.4481750  69.5226810  14.8510940  44.8235930  69.5186680  15.5764250
  45.3611870  68.6557770  14.4546910  44.3698830  70.4463440  21.8294710
  44.6671160  71.3526270  21.7486730  44.9184390  69.9582220  21.2154280
  42.1237150  75.0249680  17.6986360  41.8978070  74.8086850  18.6032980
  41.3429680  75.4578140  17.3532330  49.3534910  75.0313050  16.2977010
  48.7543800  75.7548850  16.1140630  49.9014520  74.9689830  15.5153460
  44.5636360  75.9235260  28.3646630  44.4679960  74.9829990  28.2147030
  45.4068340  76.1450330  27.9694700  47.9599780  73.6676590  18.3280290
  48.3529350  73.9848790  17.5148980  48.3216630  72.7888470  18.4424810
  39.6946900  72.3348930  26.5180410  39.3010290  73.1824140  26.7253190
  39.0065300  71.6975300  26.7089050  46.2691950  72.4183900  29.5877150
  45.5790270  72.2256100  30.2223240  47.0124250  72.7018540  30.1201450
  36.9963950  70.2577390  20.5510490  36.7077000  70.8280250  21.2635470
  37.7409710  69.7781840  20.9141720  37.1834180  74.1997510  11.7613210
  37.1008850  75.1428270  11.9028200  36.8317240  74.0572420  10.8825560
  48.5454920  76.2582340  22.4231070  47.8136040  76.7669150  22.7721170
  48.1479260  75.4412320  22.1219850  44.9832310  72.9336540  20.8283560
  44.9868370  72.4926490  19.9788100  45.8783430  73.2553870  20.9355380
  40.8334690  72.8163030  19.7877770  40.4934740  73.2938260  20.5444820
  40.0712010  72.3628150  19.4278870  45.0452460  73.9348620  13.8190320
  45.1665280  73.8935100  14.7676140  44.6600970  74.7972770  13.6637050
  49.0080830  71.7116020  21.8354010  49.0253570  72.1624670  22.6795860
  48.7596410  70.8121660  22.0487450  44.0573960  76.2449760  13.2173620
  43.4890860  75.7968010  12.5909530  44.7662960  76.6042540  12.6838770
  52.4351580  69.1248200  27.6740390  52.7597350  68.3937860  28.1998370
  52.4708090  68.8061840  26.7721380  39.1343140  80.1461780  27.0940350
  38.7497930  79.5055450  27.6923310  39.4455330  80.8497900  27.6635080
  45.2840280  76.9938320  22.5748970  45.6510410  76.5196890  23.3210310
  45.0945340  77.8679890  22.9157310  38.1480770  71.7382010  18.7042440
  37.8627690  71.3737680  19.5421060  38.0859630  71.0062470  18.0905580
  43.0739650  76.0346960  24.8933180  42.7696720  76.9138940  25.1183540
  44.0286110  76.0946750  24.9290620  41.6021440  80.2407950  15.4900030
  40.8283700  79.7005570  15.3298750  42.3316070  79.7214560  15.1517790
  52.3609420  79.2373310  21.2826420  53.0808540  79.7328600  20.8922530
  52.1591240  78.5591200  20.6380290  47.8219360  70.6311270  15.4255810
  47.0083970  70.1324440  15.3501120  47.6281310  71.4709520  15.0092160
  47.7428220  79.3082370  27.1695420  47.6765530  78.3878040  26.9153010
  47.1133360  79.4057810  27.8840060  50.5367750  75.0030920  13.7217970
  51.4247370  75.3148150  13.5469310  50.5072840  74.1303170  13.3298550
  41.6458840  79.9088330  19.1278840  42.1637510  79.1056590  19.0735730
  41.1942860  79.8467470  19.9695670  46.5328340  81.1754610  14.4006140
  46.8744040  81.9196840  13.9049460  45.7041050  81.4885730  14.7630970
  39.1303380  76.8749700  26.0404540  38.7718320  77.5403550  26.6277880
  38.8357940  76.0433250  26.4117160  42.3316500  77.3333940  28.9244090
  42.0316640  77.4791120  28.0271910  43.1027740  76.7739230  28.8317480
  47.6744950  82.1302940  26.9199220  47.6889490  81.1983900  26.7018130
  46.9670050  82.2162700  27.5588990  52.8082020  76.3142760  13.1897830
  52.7245740  76.7456980  12.3394270  53.5276210  76.7741110  13.6224650
  53.8856160  78.7710280  26.2667800  53.1604350  79.3639060  26.0697190
  54.4131620  78.7633820  25.4681170  53.8369270  83.1685020  15.9179960
  53.1945430  82.5140640  16.1923680  53.4499930  83.5740110  15.1420630
  49.4155750  80.4970450  19.7651650  49.7679570  79.8998580  19.1053020
  48.5318080  80.1714680  19.9359900  45.5019030  81.2568140  17.1722060
  46.1890160  81.8037350  17.5529650  44.7151450  81.8008870  17.2071670
  37.6411430  76.8740960  12.6639140  38.5106280  77.1565760  12.9475060
  37.1501750  77.6876830  12.5487950  44.8046240  78.2614170  16.7847420
  45.2609020  79.0719420  17.0107610  44.4534450  77.9437310  17.6165910
  47.1078850  83.7720510  24.0139720  47.7521070  83.9779890  24.6913140
  47.4708290  83.0108910  23.5610570  40.7058020  68.6051820  17.2569940
  40.5772650  68.5969720  18.2054860  39.8820040  68.9434910  16.9060950
  48.3810930  81.7752860  22.7317170  49.0233160  81.0746020  22.8449340
  48.9060280  82.5551300  22.5514060  52.2266650  82.0601480  12.4556310
  52.0004230  81.3431920  13.0480950  51.8362850  81.8113920  11.6178060
  50.1548550  82.5747760  25.9353230  50.4904790  83.1614450  26.6131150
  49.2348890  82.4440470  26.1651020  38.0082680  86.0868340  13.2300770
  38.3680320  86.6857680  12.5758040  37.8675020  86.6328230  14.0035800
  37.7051950  70.3642940  26.7176640  36.9910470  70.5639860  27.3229250
  38.1246990  69.5882510  27.0891440  51.8082900  79.9773420  14.1170470
  51.5204600  80.4386110  14.9048350  52.6035070  79.5171190  14.3854690
  37.9924540  84.3523200  27.7043170  38.1015660  83.4117940  27.5638560
  37.3405100  84.6177950  27.0556900  45.9837130  82.6239090  29.1041290
  45.6634000  81.9048330  29.6486980  45.3095490  83.2994160  29.1777350
  44.0251300  83.4699540  14.0474440  44.0161400  84.2029230  13.4318950
  43.1049660  83.2231120  14.1401400  39.6257940  78.6914430  14.7921200
  39.0185890  79.4313330  14.8016500  40.1007290  78.7813790  13.9659400
  49.1990730  72.8565250  24.4678090  49.5671550  72.0360460  24.7957660
  48.3388930  72.9167140  24.8833740  52.5652760  71.8122190  15.2765650
  51.9365920  71.9167860  14.5623880  52.0704680  72.0318970  16.0659530
  47.0110900  83.5327780  12.7099630  47.1122880  83.3291770  11.7801610
  46.1112640  83.2786060  12.9147410  44.5336790  74.0908140  16.6923530
  43.8252940  74.5594480  17.1337140  44.8181270  73.4330150  17.3268720
  46.1592720  75.5104840  24.6916060  46.6577970  75.9850660  25.3567910
  46.3015670  74.5868360  24.8986090  48.5652220  70.8158800  18.1319320
  48.4420000  70.8344930  17.1828830  49.5136780  70.8637740  18.2517720
  45.6529010  86.0514100  17.4047300  45.9070510  86.0135490  16.4826670
  44.7041490  85.9247430  17.3975550  42.7371810  72.3993220  14.0674240
  43.5862340  72.8363370  14.0014430  42.3703080  72.7113480  14.8946300
  53.3659580  71.7272800  25.5344450  52.8633180  72.4678200  25.8738260
  54.1816240  72.1156800  25.2181240  51.6581590  76.9705980  18.9805810
  50.7171730  76.9856210  19.1553500  51.9725660  76.1841940  19.4266110
  41.6363230  78.6525580  12.5409770  42.4026500  78.5406940  13.1035200
  41.7137920  77.9563550  11.8886540  40.3309990  76.0850650  13.2242660
  40.4113580  75.1378160  13.3360060  41.2229740  76.4157530  13.3303320
  53.6607170  84.1414830  20.6560070  53.7854590  84.9646000  21.1283880
  54.5272730  83.9305560  20.3084220  41.1324700  86.2346040  20.3277200
  41.8687180  85.6861500  20.5985770  41.5165620  87.1002050  20.1883190
  38.0170180  82.3019610  16.2018710  37.0909960  82.5440750  16.1924120
  38.4826610  83.1293870  16.0803460  40.1382980  85.4192110  29.5162780
  40.9395710  85.7404160  29.9298180  39.6234800  85.0587690  30.2382690
  44.2427010  85.4076350  12.1502770  45.0355620  85.6965180  11.6984560
  43.7231360  84.9768520  11.4715250  48.9747610  81.5271980  29.4638190
  48.3685770  81.5503580  28.7233940  48.6701720  80.7955020  30.0005440
  50.4047980  85.2552270  28.0747600  51.3569730  85.1710290  28.0247840
  50.2576200  85.9193980  28.7481390  53.2957180  84.6346480  13.5739510
  53.0098690  84.2211620  12.7593690  53.0976730  85.5634190  13.4540030
  37.8580790  77.9065570  28.4598830  38.3619810  77.3272850  29.0315060
  37.1188210  78.1905800  28.9975200  44.7604410  80.6279760  12.0145120
  44.6555050  80.0132110  12.7406500  44.5928630  80.1045650  11.2308130
  44.9118730  79.3136560  27.9934350  44.1464400  79.8821560  27.9089020
  45.0934690  79.0212770  27.1002580  48.0007140  79.6899790  12.6187110
  47.4517240  80.1369090  13.2629850  48.6226400  79.1849040  13.1424780
  52.0542080  81.0441890  28.5509370  52.7951550  81.3817650  28.0476830
  51.2914760  81.2133950  27.9979140  39.8903870  76.0495160  29.3548900
  39.9309210  75.7509030  30.2634130  40.7449370  76.4502770  29.1956420
  43.6682260  78.6490710  14.5152410  44.0898680  78.4830580  15.3583800
  43.7933100  77.8390940  14.0207550  41.8309680  74.6287260  27.3223390
  41.3006140  74.1378210  26.6946730  42.4997750  75.0571460  26.7881320
  46.1809900  77.6728320  11.7629510  46.7015560  76.9577340  11.3970660
  46.8278300  78.3114190  12.0630020  50.7287740  79.0956720  27.0864580
  51.1428760  79.2501800  27.9355000  49.7938740  79.2211940  27.2490360
  51.2009910  76.4352880  29.0903730  51.7830680  75.6805200  29.0024210
  51.3771680  76.9660320  28.3135210  42.3181980  71.5949630  27.4020680
  42.2238850  70.9770380  26.6771550  41.7379370  72.3215920  27.1750590
  45.0843420  70.1522870  24.4348070  44.6360720  70.1747130  23.5893620
  44.4508620  69.7541890  25.0318370  45.4902970  79.0477200  25.0560510
  45.9091080  79.8909930  24.8836750  44.5711600  79.1849240  24.8267290
  47.8266870  76.7793380  26.4398350  47.9463080  76.1834520  27.1793190
  48.6860870  76.8163070  26.0199650  50.1654770  77.3330570  25.0160860
  49.6389990  77.8573190  24.4126000  50.5086110  77.9657960  25.6470590
  42.5641160  74.7223940  11.4610570  42.3630220  73.8591300  11.8223910
  42.3933210  74.6357300  10.5232170  43.3410390  85.3530210  26.1718240
  42.8031480  86.0776270  25.8526940  43.5944350  84.8760550  25.3815580
  44.5935640  73.3214730  27.6974170  45.1835330  73.0130580  28.3851990
  43.7755880  72.8494480  27.8534070  49.4129070  72.9380540  27.9307190
  48.7244590  72.2762080  27.8657180  50.1335090  72.4918810  28.3755650
  50.0429470  69.5332170  13.9897450  50.3231760  68.6900070  14.3456870
  49.2695200  69.7655280  14.5036200  41.3623960  71.8224560  11.4488450
  41.6649860  71.8291990  10.5407600  42.1018550  71.4722420  11.9456110
  46.1972600  86.5881420  26.4304890  46.1231300  87.4916560  26.7377260
  45.2951440  86.2693320  26.4026960  44.5808890  70.7659180  12.4344650
  44.2330890  70.0883170  11.8547100  44.7821660  70.3048690  13.2488040
  46.7457930  85.7539930  14.0531250  47.6408720  86.0924900  14.0750010
  46.7775560  85.0319340  13.4255530  40.3854090  81.1266980  12.2818250
  40.8228960  81.6696650  12.9375830  40.8701820  80.3013930  12.2914590
  37.5999890  83.9156010  19.7338510  37.9302900  83.0477070  19.5017150
  38.0290890  84.1214530  20.5643470  42.1961810  82.2465020  17.3940480
  41.8957350  82.1229990  18.2944390  42.0899300  81.3873610  16.9856210
  38.0890100  84.7826600  22.4720140  37.6521090  84.9627400  23.3044290
  38.6567780  85.5401220  22.3301860  53.7252280  84.2843600  26.7597450
  53.1254270  84.3436160  26.0161370  53.8546180  83.3448580  26.8894300
  54.9653730  82.0261420  12.0967160  54.1346690  82.0938070  12.5674390
  55.1425560  82.9165540  11.7934020  54.4210190  78.7708900  14.6001360
  55.1829100  79.3405550  14.7061050  54.4364560  78.2036100  15.3709670
  37.9214530  77.2946830  18.8309020  37.2663370  77.0258470  18.1868720
  38.7592480  77.1851310  18.3811000  55.4270160  79.6259000  19.4443290
  55.7978990  78.8426320  19.0379260  56.0672090  80.3148100  19.2660590
  52.4103920  81.0095580  24.8573610  51.5963760  81.4392740  25.1199400
  52.8178120  81.6213990  24.2442660  54.4729360  79.0643270  11.7573880
  54.7478200  79.9722150  11.6293100  54.2840100  79.0005800  12.6935870
  50.8704970  72.0888120  13.0527510  51.2889850  71.9019100  12.2124170
  50.5641030  71.2367170  13.3630440  54.3694700  77.0012260  16.7503310
  53.9938300  76.2340190  16.3184600  53.6397820  77.3834960  17.2378240
  38.9590460  77.6799400  23.3712360  39.3263500  77.5926800  24.2508380
  38.3901280  76.9165950  23.2719220  53.7594320  76.1483780  26.3842830
  53.5280410  75.9196530  25.4840780  54.0198870  77.0683330  26.3387720
  38.5106460  74.5908490  27.2770780  37.6162510  74.5575250  27.6164490
  39.0504010  74.7895280  28.0422030  52.1982390  71.3740210  29.1622530
  53.0752570  71.3823610  29.5456530  52.2103230  70.6371050  28.5514880
  37.1352610  74.5045760  14.7734350  36.2316690  74.7675960  14.5986010
  37.6193230  74.7756930  13.9934310  53.6445660  75.2269750  20.0510550
  54.1683140  74.7332400  19.4200720  54.2305080  75.3620110  20.7958120
  53.8235380  75.3109620  23.5730100  52.8738090  75.2773160  23.6875090
  54.0048390  76.2209730  23.3379870  39.6779820  73.5611300  12.6828730
  40.3871520  73.1394520  12.1976010  38.9619760  73.6286530  12.0512080
  39.3253980  69.6150630  11.7231380  40.0482110  70.1559570  12.0412600
  39.5978500  69.3414050  10.8472920  53.1345630  74.4843100  15.9902960
  53.6304750  74.2513970  16.7751840  52.9361700  73.6454940  15.5740600
  39.0146170  68.8656820  21.6254000  39.6622360  68.3154200  21.1849160
  39.4348010  69.1199970  22.4469810  54.5632790  73.1204050  18.5240640
  54.4532070  72.9660090  19.4622910  55.3240380  72.5924990  18.2816050
  52.9098510  69.0598180  24.9823640  53.5470730  69.6732320  25.3482830
  53.0573400  69.0958840  24.0372870  55.4523060  70.9511970  11.7646780
  56.3772370  70.8193150  11.5565070  55.4298850  71.0304790  12.7183230
  55.5261550  71.7222630  14.3903490  54.7313050  71.6567750  14.9196400
  55.7304830  72.6573270  14.3788840  52.4679970  85.7614180  18.3841880
  53.0639040  85.4398750  17.7076300  52.7258120  85.2886000  19.1755150
  38.7678170  69.0212490  24.3679320  38.4192990  69.4776310  25.1337500
  38.4365870  68.1269620  24.4501750  40.3742540  82.1932090  28.5332510
  40.3312170  81.8225000  29.4146970  40.5053550  83.1309660  28.6734330
  44.0748570  83.7491680  24.1342230  43.8339930  84.0166240  23.2472750
  45.0151210  83.9197410  24.1893090  46.2802990  70.2124370  27.8898740
  46.2191880  70.8046200  28.6394150  47.2203370  70.1050330  27.7449000
  48.9177550  69.8694430  27.5291030  49.5317960  70.1873720  26.8672110
  49.4627110  69.3843020  28.1486890  55.3352730  85.7686060  24.9352870
  54.8411010  86.1654930  24.2180000  54.7266020  85.1435270  25.3290150
  39.4398810  68.5488690  27.6430090  39.9881800  68.3676740  26.8796200
  39.5054120  67.7582800  28.1786400  40.2130570  85.1394340  25.6530290
  39.6190890  85.0079040  26.3920330  40.2054410  84.3032480  25.1872390
  49.6585590  68.4326570  23.8560320  48.7845430  68.7661680  23.6533250
  49.5496340  67.9599750  24.6812190  50.5657570  70.6397440  25.2402040
  50.2370930  69.8249200  24.8603770  51.5139870  70.5967250  25.1167730
  53.0192180  86.4109480  22.2139610  52.5595150  87.1625290  21.8397630
  52.3904640  85.6915950  22.1554410  39.8442800  82.5052720  24.6038330
  39.1176860  81.8858010  24.5364280  39.9051950  82.8993330  23.7336410
  43.4487900  84.7197720  21.3887740  43.9652920  84.1085080  20.8636000
  44.0985280  85.2226500  21.8798750  46.1883400  85.6106210  22.2156720
  46.4761210  85.3560510  21.3389730  46.7006620  85.0583570  22.8062290
  47.4060410  69.3496410  22.7953230  46.6232200  69.8241910  23.0749990
  47.1123340  68.4451240  22.6866410  51.9581480  70.0519510  20.8402320
  52.3989570  69.9964610  19.9923920  51.6889070  70.9677520  20.9112500
  53.8220050  69.6834750  18.8511140  53.7608450  68.7395970  18.7042160
  54.6012080  69.7914840  19.3964600  38.1272800  85.8227110  17.8135090
  37.9594840  85.1897790  18.5116980  37.2607310  86.0286510  17.4629280
  38.7500820  69.6543890  15.3166950  39.5080180  69.7672770  14.7430980
  38.2877990  70.4913090  15.2710380  45.2914630  71.7683160  18.3069260
  44.4789140  71.3940050  17.9665140  45.7956270  71.0128240  18.6090450
  49.7939610  68.4325610  19.5452330  50.3968980  69.0045820  20.0200850
  49.0532600  68.9965050  19.3226230  52.9374210  68.8347170  14.8192610
  53.1324840  69.7330620  15.0860040  52.1504080  68.6034250  15.3125560
  39.7335500  84.5160340  15.2585230  39.2083120  84.8968370  14.5547190
  39.6580080  85.1411110  15.9794940  41.1225970  70.1807940  13.8568920
  41.6518730  69.3937740  13.7276870  41.7554290  70.8599130  14.0904450
  43.3163810  69.9183080  16.9114310  42.6866550  69.2170390  17.0784440
  42.7768950  70.6787210  16.6947470  46.2555760  86.5322310  29.5824920
  47.1823070  86.2966580  29.6260880  46.2406190  87.3594310  29.1010950
  54.4900820  86.0747880  16.5799170  54.6653010  85.3885620  15.9360090
  53.7922390  86.5994930  16.1875840  43.4419370  69.1967060  29.3466800
  43.1603640  69.7000660  28.5827620  43.8239070  68.3988810  28.9808930
  42.3328470  86.4642720  14.1334480  43.0647290  86.1802000  13.5858370
  42.5922140  86.2256000  15.0233860  41.4943260  82.5807450  14.1380810
  40.8652140  83.0492550  14.6866640  41.6091090  81.7356670  14.5727000
  50.0434830  68.6120640  29.9247270  49.9300280  68.9315250  30.8198790
  50.8604570  69.0133150  29.6284550  52.8233320  85.7592170  29.4065960
  53.6158640  85.2641400  29.1991920  53.1166470  86.4382310  30.0141570
  47.0811020  78.4092130   2.1691280  46.3053120  77.9292570   2.4589850
  47.7323950  77.7297780   1.9947440  41.0976850  78.7211940   3.0467040
  40.2661730  78.4660650   3.4463550  41.7057830  78.7922710   3.7824960
  41.0778110  82.7552030   3.2425060  41.3806150  81.8649770   3.0635280
  41.8221700  83.3122250   3.0147310  37.4701810  76.2819480   2.7149130
  38.0417920  75.5141680   2.7152770  37.4703350  76.5808240   1.8055740
  46.5220010  81.0849320   2.1761440  46.4528290  80.1439260   2.0150570
  47.2839870  81.1750730   2.7484010  38.7126680  71.6903840   4.5018060
  38.5329520  70.7929590   4.7820820  38.3106760  72.2375710   5.1765010
  39.3313350  74.1864340   3.1100400  40.0123460  74.4502710   3.7287800
  39.0161400  73.3465210   3.4438410  43.5237920  75.2331700   2.1972990
  44.0316140  75.7312670   2.8378010  44.0551160  74.4566900   2.0212350
  55.6248850  73.4036890   5.9002340  54.9201020  73.7918600   5.3817450
  55.8906770  74.0987180   6.5023270  41.8074020  69.8730260   6.4636410
  41.8092460  70.3902650   5.6582310  40.9778330  69.3960440   6.4406340
  43.0576870  79.5125440   4.6409910  42.7246250  80.1394360   5.2830980
  43.2343550  80.0387320   3.8611580  51.5710780  73.3270520   2.1086250
  50.8666350  73.6155410   2.6889360  51.9322940  74.1370630   1.7485810
  41.4889350  71.5840220   4.4706860  41.8306160  72.4282270   4.1760730
  40.5505160  71.7323960   4.5872200  42.2695970  81.4806240   6.4559090
  42.8869970  82.1557320   6.1743540  41.4089090  81.8894220   6.3646590
  53.1873560  82.9445650   4.3713730  52.5037080  83.6144760   4.3630400
  53.7267850  83.1426300   3.6058590  54.6397700  72.7725310   2.4995460
  53.6922610  72.8064290   2.6310890  54.9647690  73.5864260   2.8844820
  50.7232300  84.7889780   3.0858910  50.7359460  84.3852070   2.2181170
  50.1707520  85.5637070   2.9820340  50.1217740  79.6919620   4.4141520
  50.5386530  79.4779730   3.5794980  50.8457560  79.9492410   4.9850140
  54.0679840  78.0906840   4.5057760  53.2398470  78.1599930   4.0307890
  54.6630320  78.6761150   4.0373590  51.0321850  74.8776160   5.4512630
  50.6193030  75.7029870   5.7052620  50.2997800  74.2921200   5.2588990
  43.6336340  81.3503620   2.4770510  43.3364630  80.7449090   1.7978290
  44.5836160  81.3880930   2.3659870  41.8783260  74.4379270   4.0930340
  42.4297850  74.5474610   3.3183590  42.3926770  74.8116870   4.8085570
  51.7221950  84.9235490   6.1393610  51.2452510  85.7307680   5.9466220
  51.0383740  84.2713820   6.2919820  42.7254770  81.0885310   9.1278310
  41.8283300  81.3125280   9.3751710  42.7507640  81.2120250   8.1789710
  41.5525990  77.9598630   7.7035680  41.4133760  78.8321430   8.0723080
  40.6707350  77.6171440   7.5583620  43.3506340  83.9020330   9.9120830
  43.3221770  84.3063280   9.0449260  43.1871310  82.9730690   9.7492430
  55.3021160  84.6847430  11.2085000  55.7780880  85.1630320  11.8874080
  55.9228320  84.6164920  10.4830500  37.5044640  79.7296180   3.6206590
  37.5825060  79.8644950   2.6762310  38.1186320  79.0212070   3.8134710
  54.7054410  81.8760280   8.3685010  54.8317470  81.6372160   7.4502190
  54.7475790  81.0444820   8.8407090  48.5671150  85.5788280   6.9379820
  49.0815820  85.4896290   7.7402250  47.7240230  85.9247980   7.2307730
  54.5578420  73.9292740   9.3334750  53.9422690  74.4372410   8.8050210
  54.2374840  73.0291070   9.2760690  37.5604160  80.7710350   6.1601050
  37.7235200  80.3015710   5.3420420  38.0256610  80.2633910   6.8249890
  46.6192740  72.7684630   6.7996940  46.1572110  72.9767650   7.6116880
  46.2170850  71.9543980   6.4967610  51.6197250  73.9893580   7.9293600
  50.7690840  73.6899330   8.2502670  51.4599040  74.2335590   7.0177420
  48.7146960  75.4895330  10.0292390  49.0400370  74.6559080   9.6894620
  49.5027290  76.0123850  10.1770720  44.3698830  70.4463440   3.0551220
  44.6671160  71.3526270   2.9743240  44.9184390  69.9582220   2.4410790
  44.5636360  75.9235260   9.5903140  44.4679960  74.9829990   9.4403540
  45.4068340  76.1450330   9.1951210  39.6946900  72.3348930   7.7436920
  39.3010290  73.1824140   7.9509700  39.0065300  71.6975300   7.9345560
  46.2691950  72.4183900  10.8133660  45.5790270  72.2256100  11.4479750
  47.0124250  72.7018540  11.3457960  36.9963950  70.2577390   1.7767000
  36.7077000  70.8280250   2.4891980  37.7409710  69.7781840   2.1398230
  48.5454920  76.2582340   3.6487580  47.8136040  76.7669150   3.9977680
  48.1479260  75.4412320   3.3476360  49.0080830  71.7116020   3.0610520
  49.0253570  72.1624670   3.9052370  48.7596410  70.8121660   3.2743960
  52.4351580  69.1248200   8.8996900  52.7597350  68.3937860   9.4254880
  52.4708090  68.8061840   7.9977890  39.1343140  80.1461780   8.3196860
  38.7497930  79.5055450   8.9179820  39.4455330  80.8497900   8.8891590
  45.2840280  76.9938320   3.8005480  45.6510410  76.5196890   4.5466820
  45.0945340  77.8679890   4.1413820  43.0739650  76.0346960   6.1189690
  42.7696720  76.9138940   6.3440050  44.0286110  76.0946750   6.1547130
  52.3609420  79.2373310   2.5082930  53.0808540  79.7328600   2.1179040
  52.1591240  78.5591200   1.8636800  47.7428220  79.3082370   8.3951930
  47.6765530  78.3878040   8.1409520  47.1133360  79.4057810   9.1096570
  39.1303380  76.8749700   7.2661050  38.7718320  77.5403550   7.8534390
  38.8357940  76.0433250   7.6373670  42.3316500  77.3333940  10.1500600
  42.0316640  77.4791120   9.2528420  43.1027740  76.7739230  10.0573990
  47.6744950  82.1302940   8.1455730  47.6889490  81.1983900   7.9274640
  46.9670050  82.2162700   8.7845500  53.8856160  78.7710280   7.4924310
  53.1604350  79.3639060   7.2953700  54.4131620  78.7633820   6.6937680
  47.1078850  83.7720510   5.2396230  47.7521070  83.9779890   5.9169650
  47.4708290  83.0108910   4.7867080  48.3810930  81.7752860   3.9573680
  49.0233160  81.0746020   4.0705850  48.9060280  82.5551300   3.7770570
  50.1548550  82.5747760   7.1609740  50.4904790  83.1614450   7.8387660
  49.2348890  82.4440470   7.3907530  37.7051950  70.3642940   7.9433150
  36.9910470  70.5639860   8.5485760  38.1246990  69.5882510   8.3147950
  37.9924540  84.3523200   8.9299680  38.1015660  83.4117940   8.7895070
  37.3405100  84.6177950   8.2813410  45.9837130  82.6239090  10.3297800
  45.6634000  81.9048330  10.8743490  45.3095490  83.2994160  10.4033860
  49.1990730  72.8565250   5.6934600  49.5671550  72.0360460   6.0214170
  48.3388930  72.9167140   6.1090250  46.1592720  75.5104840   5.9172570
  46.6577970  75.9850660   6.5824420  46.3015670  74.5868360   6.1242600
  53.3659580  71.7272800   6.7600960  52.8633180  72.4678200   7.0994770
  54.1816240  72.1156800   6.4437750  40.1382980  85.4192110  10.7419290
  40.9395710  85.7404160  11.1554690  39.6234800  85.0587690  11.4639200
  48.9747610  81.5271980  10.6894700  48.3685770  81.5503580   9.9490450
  48.6701720  80.7955020  11.2261950  50.4047980  85.2552270   9.3004110
  51.3569730  85.1710290   9.2504350  50.2576200  85.9193980   9.9737900
  37.8580790  77.9065570   9.6855340  38.3619810  77.3272850  10.2571570
  37.1188210  78.1905800  10.2231710  44.9118730  79.3136560   9.2190860
  44.1464400  79.8821560   9.1345530  45.0934690  79.0212770   8.3259090
  52.0542080  81.0441890   9.7765880  52.7951550  81.3817650   9.2733340
  51.2914760  81.2133950   9.2235650  39.8903870  76.0495160  10.5805410
  39.9309210  75.7509030  11.4890640  40.7449370  76.4502770  10.4212930
  41.8309680  74.6287260   8.5479900  41.3006140  74.1378210   7.9203240
  42.4997750  75.0571460   8.0137830  50.7287740  79.0956720   8.3121090
  51.1428760  79.2501800   9.1611510  49.7938740  79.2211940   8.4746870
  51.2009910  76.4352880  10.3160240  51.7830680  75.6805200  10.2280720
  51.3771680  76.9660320   9.5391720  42.3181980  71.5949630   8.6277190
  42.2238850  70.9770380   7.9028060  41.7379370  72.3215920   8.4007100
  45.0843420  70.1522870   5.6604580  44.6360720  70.1747130   4.8150130
  44.4508620  69.7541890   6.2574880  45.4902970  79.0477200   6.2817020
  45.9091080  79.8909930   6.1093260  44.5711600  79.1849240   6.0523800
  47.8266870  76.7793380   7.6654860  47.9463080  76.1834520   8.4049700
  48.6860870  76.8163070   7.2456160  50.1654770  77.3330570   6.2417370
  49.6389990  77.8573190   5.6382510  50.5086110  77.9657960   6.8727100
  43.3410390  85.3530210   7.3974750  42.8031480  86.0776270   7.0783450
  43.5944350  84.8760550   6.6072090  44.5935640  73.3214730   8.9230680
  45.1835330  73.0130580   9.6108500  43.7755880  72.8494480   9.0790580
  49.4129070  72.9380540   9.1563700  48.7244590  72.2762080   9.0913690
  50.1335090  72.4918810   9.6012160  46.1972600  86.5881420   7.6561400
  46.1231300  87.4916560   7.9633770  45.2951440  86.2693320   7.6283470
  38.0890100  84.7826600   3.6976650  37.6521090  84.9627400   4.5300800
  38.6567780  85.5401220   3.5558370  53.7252280  84.2843600   7.9853960
  53.1254270  84.3436160   7.2417880  53.8546180  83.3448580   8.1150810
  52.4103920  81.0095580   6.0830120  51.5963760  81.4392740   6.3455910
  52.8178120  81.6213990   5.4699170  38.9590460  77.6799400   4.5968870
  39.3263500  77.5926800   5.4764890  38.3901280  76.9165950   4.4975730
  53.7594320  76.1483780   7.6099340  53.5280410  75.9196530   6.7097290
  54.0198870  77.0683330   7.5644230  38.5106460  74.5908490   8.5027290
  37.6162510  74.5575250   8.8421000  39.0504010  74.7895280   9.2678540
  52.1982390  71.3740210  10.3879040  53.0752570  71.3823610  10.7713040
  52.2103230  70.6371050   9.7771390  53.8235380  75.3109620   4.7986610
  52.8738090  75.2773160   4.9131600  54.0048390  76.2209730   4.5636380
  39.0146170  68.8656820   2.8510510  39.6622360  68.3154200   2.4105670
  39.4348010  69.1199970   3.6726320  52.9098510  69.0598180   6.2080150
  53.5470730  69.6732320   6.5739340  53.0573400  69.0958840   5.2629380
  38.7678170  69.0212490   5.5935830  38.4192990  69.4776310   6.3594010
  38.4365870  68.1269620   5.6758260  40.3742540  82.1932090   9.7589020
  40.3312170  81.8225000  10.6403480  40.5053550  83.1309660   9.8990840
  44.0748570  83.7491680   5.3598740  43.8339930  84.0166240   4.4729260
  45.0151210  83.9197410   5.4149600  46.2802990  70.2124370   9.1155250
  46.2191880  70.8046200   9.8650660  47.2203370  70.1050330   8.9705510
  48.9177550  69.8694430   8.7547540  49.5317960  70.1873720   8.0928620
  49.4627110  69.3843020   9.3743400  55.3352730  85.7686060   6.1609380
  54.8411010  86.1654930   5.4436510  54.7266020  85.1435270   6.5546660
  39.4398810  68.5488690   8.8686600  39.9881800  68.3676740   8.1052710
  39.5054120  67.7582800   9.4042910  40.2130570  85.1394340   6.8786800
  39.6190890  85.0079040   7.6176840  40.2054410  84.3032480   6.4128900
  49.6585590  68.4326570   5.0816830  48.7845430  68.7661680   4.8789760
  49.5496340  67.9599750   5.9068700  50.5657570  70.6397440   6.4658550
  50.2370930  69.8249200   6.0860280  51.5139870  70.5967250   6.3424240
  53.0192180  86.4109480   3.4396120  52.5595150  87.1625290   3.0654140
  52.3904640  85.6915950   3.3810920  39.8442800  82.5052720   5.8294840
  39.1176860  81.8858010   5.7620790  39.9051950  82.8993330   4.9592920
  43.4487900  84.7197720   2.6144250  43.9652920  84.1085080   2.0892510
  44.0985280  85.2226500   3.1055260  46.1883400  85.6106210   3.4413230
  46.4761210  85.3560510   2.5646240  46.7006620  85.0583570   4.0318800
  47.4060410  69.3496410   4.0209740  46.6232200  69.8241910   4.3006500
  47.1123340  68.4451240   3.9122920  46.2555760  86.5322310  10.8081430
  47.1823070  86.2966580  10.8517390  46.2406190  87.3594310  10.3267460
  43.4419370  69.1967060  10.5723310  43.1603640  69.7000660   9.8084130
  43.8239070  68.3988810  10.2065440  50.0434830  68.6120640  11.1503780
  49.9300280  68.9315250  12.0455300  50.8604570  69.0133150  10.8541060
  52.8233320  85.7592170  10.6322470  53.6158640  85.2641400  10.4248430
  53.1166470  86.4382310  11.2398080  48.9492980  57.8569620  94.1599460
  48.8687030  56.9424230  93.8891170  48.5357400  58.3536690  93.4539170
  51.1018450  64.0408830  94.8207860  50.6399980  63.2696070  95.1495030
  51.9144000  64.0674900  95.3260310  39.5068800  54.9070340  90.7026880
  38.6185500  55.2486310  90.6006760  39.7909990  54.7070660  89.8107710
  47.3281760  66.3266840  94.4411850  46.7093200  66.7824340  93.8706290
  48.1833540  66.4818300  94.0401550  41.6830190  53.4901840  91.7365260
  41.7896940  54.3905570  92.0434020  40.7722550  53.4419810  91.4459910
  51.3349300  52.6126650  93.2076160  52.1558920  52.1223220  93.2501640
  51.3683380  53.2024310  93.9608000  48.1945110  61.2106080  91.8343760
  47.5762380  61.6755530  91.2706480  48.7068360  61.9033560  92.2513270
  37.5628310  61.8962610  89.2083390  37.1856290  62.3849710  88.4768290
  37.8201380  62.5687890  89.8389920  45.1717240  50.2979000  94.6668900
  45.4792220  49.7425890  93.9504400  44.2417940  50.4323460  94.4841890
  52.0177720  62.7362510  92.0466530  51.9074050  61.7936840  92.1715950
  52.0145970  63.0978150  92.9329290  47.5598000  58.3627830  91.4029020
  46.6327280  58.2965210  91.6317490  47.7122820  59.3007960  91.2884260
  47.5467080  54.6344830  88.3996180  46.6070750  54.7958790  88.4848640
  47.8650340  55.3530510  87.8532170  51.5895290  59.9248130  91.9064270
  50.9707710  59.5867680  91.2590570  51.5719740  59.2807890  92.6143460
  43.1654640  58.8892570  94.1848750  42.7611640  58.1769820  93.6894650
  43.2517760  58.5445810  95.0736790  49.7659990  59.1634940  88.9137020
  50.2053270  58.3257370  88.7674840  50.4788410  59.7964340  89.0001160
  47.8755370  64.1031010  92.8818260  48.3151280  64.8455340  92.4673650
  47.8142260  64.3457580  93.8057220  53.3477130  50.4177750  87.2278060
  53.0349790  50.5104580  88.1277130  54.1089600  50.9958780  87.1775490
  39.8659270  57.7837550  91.6855400  39.7456870  58.5099640  91.0736670
  39.5560160  57.0140460  91.2083310  38.7492270  62.6552880  93.9030220
  38.3420350  62.7967470  93.0483820  39.6405280  62.3713040  93.7001430
  50.5425550  67.0900130  90.2381270  50.3826690  66.8003070  91.1363100
  50.3772260  66.3140260  89.7026500  43.0213930  66.8698660  92.0152890
  42.8456410  65.9534200  91.8020690  42.1669670  67.2285950  92.2550690
  50.2451680  64.5987690  88.7979270  49.5516840  64.5964980  88.1381550
  50.9874540  64.1747010  88.3673440  49.8101610  66.2250400  92.8727760
  50.2658560  65.4439780  93.1866380  50.1494130  66.9357220  93.4168940
  42.3322930  51.1272620  95.0679070  41.8891080  51.9082160  94.7363590
  42.8907920  51.4502510  95.7750010  45.4481750  50.7483320  89.9484900
  44.8235930  50.7443190  90.6738210  45.3611870  49.8814280  89.5520870
  42.1237150  56.2506190  92.7960320  41.8978070  56.0343360  93.7006940
  41.3429680  56.6834650  92.4506290  49.3534910  56.2569560  91.3950970
  48.7543800  56.9805360  91.2114590  49.9014520  56.1946340  90.6127420
  47.9599780  54.8933100  93.4254250  48.3529350  55.2105300  92.6122940
  48.3216630  54.0144980  93.5398770  37.1834180  55.4254020  86.8587170
  37.1008850  56.3684780  87.0002160  36.8317240  55.2828930  85.9799520
  44.9832310  54.1593050  95.9257520  44.9868370  53.7183000  95.0762060
  45.8783430  54.4810380  96.0329340  40.8334690  54.0419540  94.8851730
  40.4934740  54.5194770  95.6418780  40.0712010  53.5884660  94.5252830
  45.0452460  55.1605130  88.9164280  45.1665280  55.1191610  89.8650100
  44.6600970  56.0229280  88.7611010  44.0573960  57.4706270  88.3147580
  43.4890860  57.0224520  87.6883490  44.7662960  57.8299050  87.7812730
  38.1480770  52.9638520  93.8016400  37.8627690  52.5994190  94.6395020
  38.0859630  52.2318980  93.1879540  41.6021440  61.4664460  90.5873990
  40.8283700  60.9262080  90.4272710  42.3316070  60.9471070  90.2491750
  47.8219360  51.8567780  90.5229770  47.0083970  51.3580950  90.4475080
  47.6281310  52.6966030  90.1066120  50.5367750  56.2287430  88.8191930
  51.4247370  56.5404660  88.6443270  50.5072840  55.3559680  88.4272510
  41.6458840  61.1344840  94.2252800  42.1637510  60.3313100  94.1709690
  41.1942860  61.0723980  95.0669630  46.5328340  62.4011120  89.4980100
  46.8744040  63.1453350  89.0023420  45.7041050  62.7142240  89.8604930
  52.8082020  57.5399270  88.2871790  52.7245740  57.9713490  87.4368230
  53.5276210  57.9997620  88.7198610  53.8369270  64.3941530  91.0153920
  53.1945430  63.7397150  91.2897640  53.4499930  64.7996620  90.2394590
  49.4155750  61.7226960  94.8625610  49.7679570  61.1255090  94.2026980
  48.5318080  61.3971190  95.0333860  45.5019030  62.4824650  92.2696020
  46.1890160  63.0293860  92.6503610  44.7151450  63.0265380  92.3045630
  37.6411430  58.0997470  87.7613100  38.5106280  58.3822270  88.0449020
  37.1501750  58.9133340  87.6461910  44.8046240  59.4870680  91.8821380
  45.2609020  60.2975930  92.1081570  44.4534450  59.1693820  92.7139870
  40.7058020  49.8308330  92.3543900  40.5772650  49.8226230  93.3028820
  39.8820040  50.1691420  92.0034910  52.2266650  63.2857990  87.5530270
  52.0004230  62.5688430  88.1454910  51.8362850  63.0370430  86.7152020
  38.0082680  67.3124850  88.3274730  38.3680320  67.9114190  87.6732000
  37.8675020  67.8584740  89.1009760  51.8082900  61.2029930  89.2144430
  51.5204600  61.6642620  90.0022310  52.6035070  60.7427700  89.4828650
  44.0251300  64.6956050  89.1448400  44.0161400  65.4285740  88.5292910
  43.1049660  64.4487630  89.2375360  39.6257940  59.9170940  89.8895160
  39.0185890  60.6569840  89.8990460  40.1007290  60.0070300  89.0633360
  52.5652760  53.0378700  90.3739610  51.9365920  53.1424370  89.6597840
  52.0704680  53.2575480  91.1633490  47.0110900  64.7584290  87.8073590
  47.1122880  64.5548280  86.8775570  46.1112640  64.5042570  88.0121370
  44.5336790  55.3164650  91.7897490  43.8252940  55.7850990  92.2311100
  44.8181270  54.6586660  92.4242680  48.5652220  52.0415310  93.2293280
  48.4420000  52.0601440  92.2802790  49.5136780  52.0894250  93.3491680
  45.6529010  67.2770610  92.5021260  45.9070510  67.2392000  91.5800630
  44.7041490  67.1503940  92.4949510  42.7371810  53.6249730  89.1648200
  43.5862340  54.0619880  89.0988390  42.3703080  53.9369990  89.9920260
  51.6581590  58.1962490  94.0779770  50.7171730  58.2112720  94.2527460
  51.9725660  57.4098450  94.5240070  41.6363230  59.8782090  87.6383730
  42.4026500  59.7663450  88.2009160  41.7137920  59.1820060  86.9860500
  40.3309990  57.3107160  88.3216620  40.4113580  56.3634670  88.4334020
  41.2229740  57.6414040  88.4277280  41.1324700  67.4602550  95.4251160
  41.8687180  66.9118010  95.6959730  41.5165620  68.3258560  95.2857150
  38.0170180  63.5276120  91.2992670  37.0909960  63.7697260  91.2898080
  38.4826610  64.3550380  91.1777420  44.2427010  66.6332860  87.2476730
  45.0355620  66.9221690  86.7958520  43.7231360  66.2025030  86.5689210
  53.2957180  65.8602990  88.6713470  53.0098690  65.4468130  87.8567650
  53.0976730  66.7890700  88.5513990  44.7604410  61.8536270  87.1119080
  44.6555050  61.2388620  87.8380460  44.5928630  61.3302160  86.3282090
  48.0007140  60.9156300  87.7161070  47.4517240  61.3625600  88.3603810
  48.6226400  60.4105550  88.2398740  43.6682260  59.8747220  89.6126370
  44.0898680  59.7087090  90.4557760  43.7933100  59.0647450  89.1181510
  46.1809900  58.8984830  86.8603470  46.7015560  58.1833850  86.4944620
  46.8278300  59.5370700  87.1603980  42.5641160  55.9480450  86.5584530
  42.3630220  55.0847810  86.9197870  42.3933210  55.8613810  85.6206130
  50.0429470  50.7588680  89.0871410  50.3231760  49.9156580  89.4430830
  49.2695200  50.9911790  89.6010160  41.3623960  53.0481070  86.5462410
  41.6649860  53.0548500  85.6381560  42.1018550  52.6978930  87.0430070
  44.5808890  51.9915690  87.5318610  44.2330890  51.3139680  86.9521060
  44.7821660  51.5305200  88.3462000  46.7457930  66.9796440  89.1505210
  47.6408720  67.3181410  89.1723970  46.7775560  66.2575850  88.5229490
  40.3854090  62.3523490  87.3792210  40.8228960  62.8953160  88.0349790
  40.8701820  61.5270440  87.3888550  37.5999890  65.1412520  94.8312470
  37.9302900  64.2733580  94.5991110  38.0290890  65.3471040  95.6617430
  42.1961810  63.4721530  92.4914440  41.8957350  63.3486500  93.3918350
  42.0899300  62.6130120  92.0830170  54.9653730  63.2517930  87.1941120
  54.1346690  63.3194580  87.6648350  55.1425560  64.1422050  86.8907980
  54.4210190  59.9965410  89.6975320  55.1829100  60.5662060  89.8035010
  54.4364560  59.4292610  90.4683630  37.9214530  58.5203340  93.9282980
  37.2663370  58.2514980  93.2842680  38.7592480  58.4107820  93.4784960
  55.4270160  60.8515510  94.5417250  55.7978990  60.0682830  94.1353220
  56.0672090  61.5404610  94.3634550  54.4729360  60.2899780  86.8547840
  54.7478200  61.1978660  86.7267060  54.2840100  60.2262310  87.7909830
  50.8704970  53.3144630  88.1501470  51.2889850  53.1275610  87.3098130
  50.5641030  52.4623680  88.4604400  54.3694700  58.2268770  91.8477270
  53.9938300  57.4596700  91.4158560  53.6397820  58.6091470  92.3352200
  37.1352610  55.7302270  89.8708310  36.2316690  55.9932470  89.6959970
  37.6193230  56.0013440  89.0908270  53.6445660  56.4526260  95.1484510
  54.1683140  55.9588910  94.5174680  54.2305080  56.5876620  95.8932080
  39.6779820  54.7867810  87.7802690  40.3871520  54.3651030  87.2949970
  38.9619760  54.8543040  87.1486040  39.3253980  50.8407140  86.8205340
  40.0482110  51.3816080  87.1386560  39.5978500  50.5670560  85.9446880
  53.1345630  55.7099610  91.0876920  53.6304750  55.4770480  91.8725800
  52.9361700  54.8711450  90.6714560  54.5632790  54.3460560  93.6214600
  54.4532070  54.1916600  94.5596870  55.3240380  53.8181500  93.3790010
  55.4523060  52.1768480  86.8620740  56.3772370  52.0449660  86.6539030
  55.4298850  52.2561300  87.8157190  55.5261550  52.9479140  89.4877450
  54.7313050  52.8824260  90.0170360  55.7304830  53.8829780  89.4762800
  52.4679970  66.9870690  93.4815840  53.0639040  66.6655260  92.8050260
  52.7258120  66.5142510  94.2729110  51.9581480  51.2776020  95.9376280
  52.3989570  51.2221120  95.0897880  51.6889070  52.1934030  96.0086460
  53.8220050  50.9091260  93.9485100  53.7608450  49.9652480  93.8016120
  54.6012080  51.0171350  94.4938560  38.1272800  67.0483620  92.9109050
  37.9594840  66.4154300  93.6090940  37.2607310  67.2543020  92.5603240
  38.7500820  50.8800400  90.4140910  39.5080180  50.9929280  89.8404940
  38.2877990  51.7169600  90.3684340  45.2914630  52.9939670  93.4043220
  44.4789140  52.6196560  93.0639100  45.7956270  52.2384750  93.7064410
  49.7939610  49.6582120  94.6426290  50.3968980  50.2302330  95.1174810
  49.0532600  50.2221560  94.4200190  52.9374210  50.0603680  89.9166570
  53.1324840  50.9587130  90.1834000  52.1504080  49.8290760  90.4099520
  39.7335500  65.7416850  90.3559190  39.2083120  66.1224880  89.6521150
  39.6580080  66.3667620  91.0768900  41.1225970  51.4064450  88.9542880
  41.6518730  50.6194250  88.8250830  41.7554290  52.0855640  89.1878410
  43.3163810  51.1439590  92.0088270  42.6866550  50.4426900  92.1758400
  42.7768950  51.9043720  91.7921430  54.4900820  67.3004390  91.6773130
  54.6653010  66.6142130  91.0334050  53.7922390  67.8251440  91.2849800
  42.3328470  67.6899230  89.2308440  43.0647290  67.4058510  88.6832330
  42.5922140  67.4512510  90.1207820  41.4943260  63.8063960  89.2354770
  40.8652140  64.2749060  89.7840600  41.6091090  62.9613180  89.6700960
  48.9492980  57.8569620  75.3855970  48.8687030  56.9424230  75.1147680
  48.5357400  58.3536690  74.6795680  47.0811020  59.6348640  77.2665240
  46.3053120  59.1549080  77.5563810  47.7323950  58.9554290  77.0921400
  41.0976850  59.9468450  78.1441000  40.2661730  59.6917160  78.5437510
  41.7057830  60.0179220  78.8798920  51.1018450  64.0408830  76.0464370
  50.6399980  63.2696070  76.3751540  51.9144000  64.0674900  76.5516820
  41.0778110  63.9808540  78.3399020  41.3806150  63.0906280  78.1609240
  41.8221700  64.5378760  78.1121270  39.5068800  54.9070340  71.9283390
  38.6185500  55.2486310  71.8263270  39.7909990  54.7070660  71.0364220
  37.4701810  57.5075990  77.8123090  38.0417920  56.7398190  77.8126730
  37.4703350  57.8064750  76.9029700  47.3281760  66.3266840  75.6668360
  46.7093200  66.7824340  75.0962800  48.1833540  66.4818300  75.2658060
  46.5220010  62.3105830  77.2735400  46.4528290  61.3695770  77.1124530
  47.2839870  62.4007240  77.8457970  38.7126680  52.9160350  79.5992020
  38.5329520  52.0186100  79.8794780  38.3106760  53.4632220  80.2738970
  47.5525180  55.1176210  77.5004330  47.9290000  54.2448090  77.3878000
  47.4544690  55.4534910  76.6094770  41.6830190  53.4901840  72.9621770
  41.7896940  54.3905570  73.2690530  40.7722550  53.4419810  72.6716420
  51.3349300  52.6126650  74.4332670  52.1558920  52.1223220  74.4758150
  51.3683380  53.2024310  75.1864510  39.3313350  55.4120850  78.2074360
  40.0123460  55.6759220  78.8261760  39.0161400  54.5721720  78.5412370
  43.5237920  56.4588210  77.2946950  44.0316140  56.9569180  77.9351970
  44.0551160  55.6823410  77.1186310  55.6248850  54.6293400  80.9976300
  54.9201020  55.0175110  80.4791410  55.8906770  55.3243690  81.5997230
  41.8074020  51.0986770  81.5610370  41.8092460  51.6159160  80.7556270
  40.9778330  50.6216950  81.5380300  48.1945110  61.2106080  73.0600270
  47.5762380  61.6755530  72.4962990  48.7068360  61.9033560  73.4769780
  43.0576870  60.7381950  79.7383870  42.7246250  61.3650870  80.3804940
  43.2343550  61.2643830  78.9585540  51.5710780  54.5527030  77.2060210
  50.8666350  54.8411920  77.7863320  51.9322940  55.3627140  76.8459770
  41.4889350  52.8096730  79.5680820  41.8306160  53.6538780  79.2734690
  40.5505160  52.9580470  79.6846160  42.2695970  62.7062750  81.5533050
  42.8869970  63.3813830  81.2717500  41.4089090  63.1150730  81.4620550
  37.5628310  61.8962610  70.4339900  37.1856290  62.3849710  69.7024800
  37.8201380  62.5687890  71.0646430  53.1873560  64.1702160  79.4687690
  52.5037080  64.8401270  79.4604360  53.7267850  64.3682810  78.7032550
  54.6397700  53.9981820  77.5969420  53.6922610  54.0320800  77.7284850
  54.9647690  54.8120770  77.9818780  45.1717240  50.2979000  75.8925410
  45.4792220  49.7425890  75.1760910  44.2417940  50.4323460  75.7098400
  50.7232300  66.0146290  78.1832870  50.7359460  65.6108580  77.3155130
  50.1707520  66.7893580  78.0794300  52.0177720  62.7362510  73.2723040
  51.9074050  61.7936840  73.3972460  52.0145970  63.0978150  74.1585800
  50.1217740  60.9176130  79.5115480  50.5386530  60.7036240  78.6768940
  50.8457560  61.1748920  80.0824100  47.5598000  58.3627830  72.6285530
  46.6327280  58.2965210  72.8574000  47.7122820  59.3007960  72.5140770
  47.5467080  54.6344830  69.6252690  46.6070750  54.7958790  69.7105150
  47.8650340  55.3530510  69.0788680  54.0679840  59.3163350  79.6031720
  53.2398470  59.3856440  79.1281850  54.6630320  59.9017660  79.1347550
  51.5895290  59.9248130  73.1320780  50.9707710  59.5867680  72.4847080
  51.5719740  59.2807890  73.8399970  51.0321850  56.1032670  80.5486590
  50.6193030  56.9286380  80.8026580  50.2997800  55.5177710  80.3562950
  43.1654640  58.8892570  75.4105260  42.7611640  58.1769820  74.9151160
  43.2517760  58.5445810  76.2993300  43.6336340  62.5760130  77.5744470
  43.3364630  61.9705600  76.8952250  44.5836160  62.6137440  77.4633830
  41.8783260  55.6635780  79.1904300  42.4297850  55.7731120  78.4157550
  42.3926770  56.0373380  79.9059530  51.7221950  66.1492000  81.2367570
  51.2452510  66.9564190  81.0440180  51.0383740  65.4970330  81.3893780
  42.7254770  62.3141820  84.2252270  41.8283300  62.5381790  84.4725670
  42.7507640  62.4376760  83.2763670  49.7659990  59.1634940  70.1393530
  50.2053270  58.3257370  69.9931350  50.4788410  59.7964340  70.2257670
  41.5525990  59.1855140  82.8009640  41.4133760  60.0577940  83.1697040
  40.6707350  58.8427950  82.6557580  47.8755370  64.1031010  74.1074770
  48.3151280  64.8455340  73.6930160  47.8142260  64.3457580  75.0313730
  43.3506340  65.1276840  85.0094790  43.3221770  65.5319790  84.1423220
  43.1871310  64.1987200  84.8466390  53.3477130  50.4177750  68.4534570
  53.0349790  50.5104580  69.3533640  54.1089600  50.9958780  68.4032000
  39.8659270  57.7837550  72.9111910  39.7456870  58.5099640  72.2993180
  39.5560160  57.0140460  72.4339820  55.3021160  65.9103940  86.3058960
  55.7780880  66.3886830  86.9848040  55.9228320  65.8421430  85.5804460
  37.5044640  60.9552690  78.7180550  37.5825060  61.0901460  77.7736270
  38.1186320  60.2468580  78.9108670  38.7492270  62.6552880  75.1286730
  38.3420350  62.7967470  74.2740330  39.6405280  62.3713040  74.9257940
  54.7054410  63.1016790  83.4658970  54.8317470  62.8628670  82.5476150
  54.7475790  62.2701330  83.9381050  48.5671150  66.8044790  82.0353780
  49.0815820  66.7152800  82.8376210  47.7240230  67.1504490  82.3281690
  50.5425550  67.0900130  71.4637780  50.3826690  66.8003070  72.3619610
  50.3772260  66.3140260  70.9283010  43.0213930  66.8698660  73.2409400
  42.8456410  65.9534200  73.0277200  42.1669670  67.2285950  73.4807200
  50.2451680  64.5987690  70.0235780  49.5516840  64.5964980  69.3638060
  50.9874540  64.1747010  69.5929950  49.8101610  66.2250400  74.0984270
  50.2658560  65.4439780  74.4122890  50.1494130  66.9357220  74.6425450
  54.5578420  55.1549250  84.4308710  53.9422690  55.6628920  83.9024170
  54.2374840  54.2547580  84.3734650  37.5604160  61.9966860  81.2575010
  37.7235200  61.5272220  80.4394380  38.0256610  61.4890420  81.9223850
  42.3322930  51.1272620  76.2935580  41.8891080  51.9082160  75.9620100
  42.8907920  51.4502510  77.0006520  46.6192740  53.9941140  81.8970900
  46.1572110  54.2024160  82.7090840  46.2170850  53.1800490  81.5941570
  51.6197250  55.2150090  83.0267560  50.7690840  54.9155840  83.3476630
  51.4599040  55.4592100  82.1151380  48.7146960  56.7151840  85.1266350
  49.0400370  55.8815590  84.7868580  49.5027290  57.2380360  85.2744680
  45.4481750  50.7483320  71.1741410  44.8235930  50.7443190  71.8994720
  45.3611870  49.8814280  70.7777380  44.3698830  51.6719950  78.1525180
  44.6671160  52.5782780  78.0717200  44.9184390  51.1838730  77.5384750
  42.1237150  56.2506190  74.0216830  41.8978070  56.0343360  74.9263450
  41.3429680  56.6834650  73.6762800  49.3534910  56.2569560  72.6207480
  48.7543800  56.9805360  72.4371100  49.9014520  56.1946340  71.8383930
  44.5636360  57.1491770  84.6877100  44.4679960  56.2086500  84.5377500
  45.4068340  57.3706840  84.2925170  47.9599780  54.8933100  74.6510760
  48.3529350  55.2105300  73.8379450  48.3216630  54.0144980  74.7655280
  39.6946900  53.5605440  82.8410880  39.3010290  54.4080650  83.0483660
  39.0065300  52.9231810  83.0319520  46.2691950  53.6440410  85.9107620
  45.5790270  53.4512610  86.5453710  47.0124250  53.9275050  86.4431920
  36.9963950  51.4833900  76.8740960  36.7077000  52.0536760  77.5865940
  37.7409710  51.0038350  77.2372190  37.1834180  55.4254020  68.0843680
  37.1008850  56.3684780  68.2258670  36.8317240  55.2828930  67.2056030
  48.5454920  57.4838850  78.7461540  47.8136040  57.9925660  79.0951640
  48.1479260  56.6668830  78.4450320  44.9832310  54.1593050  77.1514030
  44.9868370  53.7183000  76.3018570  45.8783430  54.4810380  77.2585850
  40.8334690  54.0419540  76.1108240  40.4934740  54.5194770  76.8675290
  40.0712010  53.5884660  75.7509340  45.0452460  55.1605130  70.1420790
  45.1665280  55.1191610  71.0906610  44.6600970  56.0229280  69.9867520
  49.0080830  52.9372530  78.1584480  49.0253570  53.3881180  79.0026330
  48.7596410  52.0378170  78.3717920  44.0573960  57.4706270  69.5404090
  43.4890860  57.0224520  68.9140000  44.7662960  57.8299050  69.0069240
  52.4351580  50.3504710  83.9970860  52.7597350  49.6194370  84.5228840
  52.4708090  50.0318350  83.0951850  39.1343140  61.3718290  83.4170820
  38.7497930  60.7311960  84.0153780  39.4455330  62.0754410  83.9865550
  45.2840280  58.2194830  78.8979440  45.6510410  57.7453400  79.6440780
  45.0945340  59.0936400  79.2387780  38.1480770  52.9638520  75.0272910
  37.8627690  52.5994190  75.8651530  38.0859630  52.2318980  74.4136050
  43.0739650  57.2603470  81.2163650  42.7696720  58.1395450  81.4414010
  44.0286110  57.3203260  81.2521090  41.6021440  61.4664460  71.8130500
  40.8283700  60.9262080  71.6529220  42.3316070  60.9471070  71.4748260
  52.3609420  60.4629820  77.6056890  53.0808540  60.9585110  77.2153000
  52.1591240  59.7847710  76.9610760  47.8219360  51.8567780  71.7486280
  47.0083970  51.3580950  71.6731590  47.6281310  52.6966030  71.3322630
  47.7428220  60.5338880  83.4925890  47.6765530  59.6134550  83.2383480
  47.1133360  60.6314320  84.2070530  50.5367750  56.2287430  70.0448440
  51.4247370  56.5404660  69.8699780  50.5072840  55.3559680  69.6529020
  41.6458840  61.1344840  75.4509310  42.1637510  60.3313100  75.3966200
  41.1942860  61.0723980  76.2926140  46.5328340  62.4011120  70.7236610
  46.8744040  63.1453350  70.2279930  45.7041050  62.7142240  71.0861440
  39.1303380  58.1006210  82.3635010  38.7718320  58.7660060  82.9508350
  38.8357940  57.2689760  82.7347630  42.3316500  58.5590450  85.2474560
  42.0316640  58.7047630  84.3502380  43.1027740  57.9995740  85.1547950
  47.6744950  63.3559450  83.2429690  47.6889490  62.4240410  83.0248600
  46.9670050  63.4419210  83.8819460  52.8082020  57.5399270  69.5128300
  52.7245740  57.9713490  68.6624740  53.5276210  57.9997620  69.9455120
  53.8856160  59.9966790  82.5898270  53.1604350  60.5895570  82.3927660
  54.4131620  59.9890330  81.7911640  53.8369270  64.3941530  72.2410430
  53.1945430  63.7397150  72.5154150  53.4499930  64.7996620  71.4651100
  49.4155750  61.7226960  76.0882120  49.7679570  61.1255090  75.4283490
  48.5318080  61.3971190  76.2590370  45.5019030  62.4824650  73.4952530
  46.1890160  63.0293860  73.8760120  44.7151450  63.0265380  73.5302140
  37.6411430  58.0997470  68.9869610  38.5106280  58.3822270  69.2705530
  37.1501750  58.9133340  68.8718420  44.8046240  59.4870680  73.1077890
  45.2609020  60.2975930  73.3338080  44.4534450  59.1693820  73.9396380
  47.1078850  64.9977020  80.3370190  47.7521070  65.2036400  81.0143610
  47.4708290  64.2365420  79.8841040  40.7058020  49.8308330  73.5800410
  40.5772650  49.8226230  74.5285330  39.8820040  50.1691420  73.2291420
  48.3810930  63.0009370  79.0547640  49.0233160  62.3002530  79.1679810
  48.9060280  63.7807810  78.8744530  52.2266650  63.2857990  68.7786780
  52.0004230  62.5688430  69.3711420  51.8362850  63.0370430  67.9408530
  50.1548550  63.8004270  82.2583700  50.4904790  64.3870960  82.9361620
  49.2348890  63.6696980  82.4881490  38.0082680  67.3124850  69.5531240
  38.3680320  67.9114190  68.8988510  37.8675020  67.8584740  70.3266270
  37.7051950  51.5899450  83.0407110  36.9910470  51.7896370  83.6459720
  38.1246990  50.8139020  83.4121910  51.8082900  61.2029930  70.4400940
  51.5204600  61.6642620  71.2278820  52.6035070  60.7427700  70.7085160
  37.9924540  65.5779710  84.0273640  38.1015660  64.6374450  83.8869030
  37.3405100  65.8434460  83.3787370  45.9837130  63.8495600  85.4271760
  45.6634000  63.1304840  85.9717450  45.3095490  64.5250670  85.5007820
  44.0251300  64.6956050  70.3704910  44.0161400  65.4285740  69.7549420
  43.1049660  64.4487630  70.4631870  39.6257940  59.9170940  71.1151670
  39.0185890  60.6569840  71.1246970  40.1007290  60.0070300  70.2889870
  49.1990730  54.0821760  80.7908560  49.5671550  53.2616970  81.1188130
  48.3388930  54.1423650  81.2064210  52.5652760  53.0378700  71.5996120
  51.9365920  53.1424370  70.8854350  52.0704680  53.2575480  72.3890000
  47.0110900  64.7584290  69.0330100  47.1122880  64.5548280  68.1032080
  46.1112640  64.5042570  69.2377880  44.5336790  55.3164650  73.0154000
  43.8252940  55.7850990  73.4567610  44.8181270  54.6586660  73.6499190
  46.1592720  56.7361350  81.0146530  46.6577970  57.2107170  81.6798380
  46.3015670  55.8124870  81.2216560  48.5652220  52.0415310  74.4549790
  48.4420000  52.0601440  73.5059300  49.5136780  52.0894250  74.5748190
  45.6529010  67.2770610  73.7277770  45.9070510  67.2392000  72.8057140
  44.7041490  67.1503940  73.7206020  42.7371810  53.6249730  70.3904710
  43.5862340  54.0619880  70.3244900  42.3703080  53.9369990  71.2176770
  53.3659580  52.9529310  81.8574920  52.8633180  53.6934710  82.1968730
  54.1816240  53.3413310  81.5411710  51.6581590  58.1962490  75.3036280
  50.7171730  58.2112720  75.4783970  51.9725660  57.4098450  75.7496580
  41.6363230  59.8782090  68.8640240  42.4026500  59.7663450  69.4265670
  41.7137920  59.1820060  68.2117010  40.3309990  57.3107160  69.5473130
  40.4113580  56.3634670  69.6590530  41.2229740  57.6414040  69.6533790
  53.6607170  65.3671340  76.9790540  53.7854590  66.1902510  77.4514350
  54.5272730  65.1562070  76.6314690  41.1324700  67.4602550  76.6507670
  41.8687180  66.9118010  76.9216240  41.5165620  68.3258560  76.5113660
  38.0170180  63.5276120  72.5249180  37.0909960  63.7697260  72.5154590
  38.4826610  64.3550380  72.4033930  40.1382980  66.6448620  85.8393250
  40.9395710  66.9660670  86.2528650  39.6234800  66.2844200  86.5613160
  44.2427010  66.6332860  68.4733240  45.0355620  66.9221690  68.0215030
  43.7231360  66.2025030  67.7945720  48.9747610  62.7528490  85.7868660
  48.3685770  62.7760090  85.0464410  48.6701720  62.0211530  86.3235910
  50.4047980  66.4808780  84.3978070  51.3569730  66.3966800  84.3478310
  50.2576200  67.1450490  85.0711860  53.2957180  65.8602990  69.8969980
  53.0098690  65.4468130  69.0824160  53.0976730  66.7890700  69.7770500
  37.8580790  59.1322080  84.7829300  38.3619810  58.5529360  85.3545530
  37.1188210  59.4162310  85.3205670  44.7604410  61.8536270  68.3375590
  44.6555050  61.2388620  69.0636970  44.5928630  61.3302160  67.5538600
  44.9118730  60.5393070  84.3164820  44.1464400  61.1078070  84.2319490
  45.0934690  60.2469280  83.4233050  48.0007140  60.9156300  68.9417580
  47.4517240  61.3625600  69.5860320  48.6226400  60.4105550  69.4655250
  52.0542080  62.2698400  84.8739840  52.7951550  62.6074160  84.3707300
  51.2914760  62.4390460  84.3209610  39.8903870  57.2751670  85.6779370
  39.9309210  56.9765540  86.5864600  40.7449370  57.6759280  85.5186890
  43.6682260  59.8747220  70.8382880  44.0898680  59.7087090  71.6814270
  43.7933100  59.0647450  70.3438020  41.8309680  55.8543770  83.6453860
  41.3006140  55.3634720  83.0177200  42.4997750  56.2827970  83.1111790
  46.1809900  58.8984830  68.0859980  46.7015560  58.1833850  67.7201130
  46.8278300  59.5370700  68.3860490  50.7287740  60.3213230  83.4095050
  51.1428760  60.4758310  84.2585470  49.7938740  60.4468450  83.5720830
  51.2009910  57.6609390  85.4134200  51.7830680  56.9061710  85.3254680
  51.3771680  58.1916830  84.6365680  42.3181980  52.8206140  83.7251150
  42.2238850  52.2026890  83.0002020  41.7379370  53.5472430  83.4981060
  45.0843420  51.3779380  80.7578540  44.6360720  51.4003640  79.9124090
  44.4508620  50.9798400  81.3548840  45.4902970  60.2733710  81.3790980
  45.9091080  61.1166440  81.2067220  44.5711600  60.4105750  81.1497760
  47.8266870  58.0049890  82.7628820  47.9463080  57.4091030  83.5023660
  48.6860870  58.0419580  82.3430120  50.1654770  58.5587080  81.3391330
  49.6389990  59.0829700  80.7356470  50.5086110  59.1914470  81.9701060
  42.5641160  55.9480450  67.7841040  42.3630220  55.0847810  68.1454380
  42.3933210  55.8613810  66.8462640  43.3410390  66.5786720  82.4948710
  42.8031480  67.3032780  82.1757410  43.5944350  66.1017060  81.7046050
  44.5935640  54.5471240  84.0204640  45.1835330  54.2387090  84.7082460
  43.7755880  54.0750990  84.1764540  49.4129070  54.1637050  84.2537660
  48.7244590  53.5018590  84.1887650  50.1335090  53.7175320  84.6986120
  50.0429470  50.7588680  70.3127920  50.3231760  49.9156580  70.6687340
  49.2695200  50.9911790  70.8266670  41.3623960  53.0481070  67.7718920
  41.6649860  53.0548500  66.8638070  42.1018550  52.6978930  68.2686580
  46.1972600  67.8137930  82.7535360  46.1231300  68.7173070  83.0607730
  45.2951440  67.4949830  82.7257430  44.5808890  51.9915690  68.7575120
  44.2330890  51.3139680  68.1777570  44.7821660  51.5305200  69.5718510
  46.7457930  66.9796440  70.3761720  47.6408720  67.3181410  70.3980480
  46.7775560  66.2575850  69.7486000  40.3854090  62.3523490  68.6048720
  40.8228960  62.8953160  69.2606300  40.8701820  61.5270440  68.6145060
  37.5999890  65.1412520  76.0568980  37.9302900  64.2733580  75.8247620
  38.0290890  65.3471040  76.8873940  42.1961810  63.4721530  73.7170950
  41.8957350  63.3486500  74.6174860  42.0899300  62.6130120  73.3086680
  38.0890100  66.0083110  78.7950610  37.6521090  66.1883910  79.6274760
  38.6567780  66.7657730  78.6532330  53.7252280  65.5100110  83.0827920
  53.1254270  65.5692670  82.3391840  53.8546180  64.5705090  83.2124770
  54.9653730  63.2517930  68.4197630  54.1346690  63.3194580  68.8904860
  55.1425560  64.1422050  68.1164490  54.4210190  59.9965410  70.9231830
  55.1829100  60.5662060  71.0291520  54.4364560  59.4292610  71.6940140
  37.9214530  58.5203340  75.1539490  37.2663370  58.2514980  74.5099190
  38.7592480  58.4107820  74.7041470  55.4270160  60.8515510  75.7673760
  55.7978990  60.0682830  75.3609730  56.0672090  61.5404610  75.5891060
  52.4103920  62.2352090  81.1804080  51.5963760  62.6649250  81.4429870
  52.8178120  62.8470500  80.5673130  54.4729360  60.2899780  68.0804350
  54.7478200  61.1978660  67.9523570  54.2840100  60.2262310  69.0166340
  50.8704970  53.3144630  69.3757980  51.2889850  53.1275610  68.5354640
  50.5641030  52.4623680  69.6860910  54.3694700  58.2268770  73.0733780
  53.9938300  57.4596700  72.6415070  53.6397820  58.6091470  73.5608710
  38.9590460  58.9055910  79.6942830  39.3263500  58.8183310  80.5738850
  38.3901280  58.1422460  79.5949690  53.7594320  57.3740290  82.7073300
  53.5280410  57.1453040  81.8071250  54.0198870  58.2939840  82.6618190
  38.5106460  55.8165000  83.6001250  37.6162510  55.7831760  83.9394960
  39.0504010  56.0151790  84.3652500  52.1982390  52.5996720  85.4853000
  53.0752570  52.6080120  85.8687000  52.2103230  51.8627560  84.8745350
  37.1352610  55.7302270  71.0964820  36.2316690  55.9932470  70.9216480
  37.6193230  56.0013440  70.3164780  53.6445660  56.4526260  76.3741020
  54.1683140  55.9588910  75.7431190  54.2305080  56.5876620  77.1188590
  53.8235380  56.5366130  79.8960570  52.8738090  56.5029670  80.0105560
  54.0048390  57.4466240  79.6610340  39.6779820  54.7867810  69.0059200
  40.3871520  54.3651030  68.5206480  38.9619760  54.8543040  68.3742550
  39.3253980  50.8407140  68.0461850  40.0482110  51.3816080  68.3643070
  39.5978500  50.5670560  67.1703390  53.1345630  55.7099610  72.3133430
  53.6304750  55.4770480  73.0982310  52.9361700  54.8711450  71.8971070
  39.0146170  50.0913330  77.9484470  39.6622360  49.5410710  77.5079630
  39.4348010  50.3456480  78.7700280  54.5632790  54.3460560  74.8471110
  54.4532070  54.1916600  75.7853380  55.3240380  53.8181500  74.6046520
  52.9098510  50.2854690  81.3054110  53.5470730  50.8988830  81.6713300
  53.0573400  50.3215350  80.3603340  55.4523060  52.1768480  68.0877250
  56.3772370  52.0449660  67.8795540  55.4298850  52.2561300  69.0413700
  55.5261550  52.9479140  70.7133960  54.7313050  52.8824260  71.2426870
  55.7304830  53.8829780  70.7019310  52.4679970  66.9870690  74.7072350
  53.0639040  66.6655260  74.0306770  52.7258120  66.5142510  75.4985620
  38.7678170  50.2469000  80.6909790  38.4192990  50.7032820  81.4567970
  38.4365870  49.3526130  80.7732220  40.3742540  63.4188600  84.8562980
  40.3312170  63.0481510  85.7377440  40.5053550  64.3566170  84.9964800
  44.0748570  64.9748190  80.4572700  43.8339930  65.2422750  79.5703220
  45.0151210  65.1453920  80.5123560  46.2802990  51.4380880  84.2129210
  46.2191880  52.0302710  84.9624620  47.2203370  51.3306840  84.0679470
  48.9177550  51.0950940  83.8521500  49.5317960  51.4130230  83.1902580
  49.4627110  50.6099530  84.4717360  55.3352730  66.9942570  81.2583340
  54.8411010  67.3911440  80.5410470  54.7266020  66.3691780  81.6520620
  39.4398810  49.7745200  83.9660560  39.9881800  49.5933250  83.2026670
  39.5054120  48.9839310  84.5016870  40.2130570  66.3650850  81.9760760
  39.6190890  66.2335550  82.7150800  40.2054410  65.5288990  81.5102860
  49.6585590  49.6583080  80.1790790  48.7845430  49.9918190  79.9763720
  49.5496340  49.1856260  81.0042660  50.5657570  51.8653950  81.5632510
  50.2370930  51.0505710  81.1834240  51.5139870  51.8223760  81.4398200
  53.0192180  67.6365990  78.5370080  52.5595150  68.3881800  78.1628100
  52.3904640  66.9172460  78.4784880  39.8442800  63.7309230  80.9268800
  39.1176860  63.1114520  80.8594750  39.9051950  64.1249840  80.0566880
  43.4487900  65.9454230  77.7118210  43.9652920  65.3341590  77.1866470
  44.0985280  66.4483010  78.2029220  46.1883400  66.8362720  78.5387190
  46.4761210  66.5817020  77.6620200  46.7006620  66.2840080  79.1292760
  47.4060410  50.5752920  79.1183700  46.6232200  51.0498420  79.3980460
  47.1123340  49.6707750  79.0096880  51.9581480  51.2776020  77.1632790
  52.3989570  51.2221120  76.3154390  51.6889070  52.1934030  77.2342970
  53.8220050  50.9091260  75.1741610  53.7608450  49.9652480  75.0272630
  54.6012080  51.0171350  75.7195070  38.1272800  67.0483620  74.1365560
  37.9594840  66.4154300  74.8347450  37.2607310  67.2543020  73.7859750
  38.7500820  50.8800400  71.6397420  39.5080180  50.9929280  71.0661450
  38.2877990  51.7169600  71.5940850  45.2914630  52.9939670  74.6299730
  44.4789140  52.6196560  74.2895610  45.7956270  52.2384750  74.9320920
  49.7939610  49.6582120  75.8682800  50.3968980  50.2302330  76.3431320
  49.0532600  50.2221560  75.6456700  52.9374210  50.0603680  71.1423080
  53.1324840  50.9587130  71.4090510  52.1504080  49.8290760  71.6356030
  39.7335500  65.7416850  71.5815700  39.2083120  66.1224880  70.8777660
  39.6580080  66.3667620  72.3025410  41.1225970  51.4064450  70.1799390
  41.6518730  50.6194250  70.0507340  41.7554290  52.0855640  70.4134920
  43.3163810  51.1439590  73.2344780  42.6866550  50.4426900  73.4014910
  42.7768950  51.9043720  73.0177940  46.2555760  67.7578820  85.9055390
  47.1823070  67.5223090  85.9491350  46.2406190  68.5850820  85.4241420
  54.4900820  67.3004390  72.9029640  54.6653010  66.6142130  72.2590560
  53.7922390  67.8251440  72.5106310  43.4419370  50.4223570  85.6697270
  43.1603640  50.9257170  84.9058090  43.8239070  49.6245320  85.3039400
  42.3328470  67.6899230  70.4564950  43.0647290  67.4058510  69.9088840
  42.5922140  67.4512510  71.3464330  41.4943260  63.8063960  70.4611280
  40.8652140  64.2749060  71.0097110  41.6091090  62.9613180  70.8957470
  50.0434830  49.8377150  86.2477740  49.9300280  50.1571760  87.1429260
  50.8604570  50.2389660  85.9515020  52.8233320  66.9848680  85.7296430
  53.6158640  66.4897910  85.5222390  53.1166470  67.6638820  86.3372040
  48.9492980  57.8569620  56.6112480  48.8687030  56.9424230  56.3404190
  48.5357400  58.3536690  55.9052190  47.0811020  59.6348640  58.4921750
  46.3053120  59.1549080  58.7820320  47.7323950  58.9554290  58.3177910
  41.0976850  59.9468450  59.3697510  40.2661730  59.6917160  59.7694020
  41.7057830  60.0179220  60.1055430  51.1018450  64.0408830  57.2720880
  50.6399980  63.2696070  57.6008050  51.9144000  64.0674900  57.7773330
  41.0778110  63.9808540  59.5655530  41.3806150  63.0906280  59.3865750
  41.8221700  64.5378760  59.3377780  39.5068800  54.9070340  53.1539900
  38.6185500  55.2486310  53.0519780  39.7909990  54.7070660  52.2620730
  37.4701810  57.5075990  59.0379600  38.0417920  56.7398190  59.0383240
  37.4703350  57.8064750  58.1286210  47.3281760  66.3266840  56.8924870
  46.7093200  66.7824340  56.3219310  48.1833540  66.4818300  56.4914570
  46.5220010  62.3105830  58.4991910  46.4528290  61.3695770  58.3381040
  47.2839870  62.4007240  59.0714480  38.7126680  52.9160350  60.8248530
  38.5329520  52.0186100  61.1051290  38.3106760  53.4632220  61.4995480
  47.5525180  55.1176210  58.7260840  47.9290000  54.2448090  58.6134510
  47.4544690  55.4534910  57.8351280  41.6830190  53.4901840  54.1878280
  41.7896940  54.3905570  54.4947040  40.7722550  53.4419810  53.8972930
  51.3349300  52.6126650  55.6589180  52.1558920  52.1223220  55.7014660
  51.3683380  53.2024310  56.4121020  39.3313350  55.4120850  59.4330870
  40.0123460  55.6759220  60.0518270  39.0161400  54.5721720  59.7668880
  43.5237920  56.4588210  58.5203460  44.0316140  56.9569180  59.1608480
  44.0551160  55.6823410  58.3442820  55.6248850  54.6293400  62.2232810
  54.9201020  55.0175110  61.7047920  55.8906770  55.3243690  62.8253740
  41.8074020  51.0986770  62.7866880  41.8092460  51.6159160  61.9812780
  40.9778330  50.6216950  62.7636810  48.1945110  61.2106080  54.2856780
  47.5762380  61.6755530  53.7219500  48.7068360  61.9033560  54.7026290
  43.0576870  60.7381950  60.9640380  42.7246250  61.3650870  61.6061450
  43.2343550  61.2643830  60.1842050  51.5710780  54.5527030  58.4316720
  50.8666350  54.8411920  59.0119830  51.9322940  55.3627140  58.0716280
  41.4889350  52.8096730  60.7937330  41.8306160  53.6538780  60.4991200
  40.5505160  52.9580470  60.9102670  42.2695970  62.7062750  62.7789560
  42.8869970  63.3813830  62.4974010  41.4089090  63.1150730  62.6877060
  37.5628310  61.8962610  51.6596410  37.1856290  62.3849710  50.9281310
  37.8201380  62.5687890  52.2902940  53.1873560  64.1702160  60.6944200
  52.5037080  64.8401270  60.6860870  53.7267850  64.3682810  59.9289060
  54.6397700  53.9981820  58.8225930  53.6922610  54.0320800  58.9541360
  54.9647690  54.8120770  59.2075290  45.1717240  50.2979000  57.1181920
  45.4792220  49.7425890  56.4017420  44.2417940  50.4323460  56.9354910
  50.7232300  66.0146290  59.4089380  50.7359460  65.6108580  58.5411640
  50.1707520  66.7893580  59.3050810  52.0177720  62.7362510  54.4979550
  51.9074050  61.7936840  54.6228970  52.0145970  63.0978150  55.3842310
  50.1217740  60.9176130  60.7371990  50.5386530  60.7036240  59.9025450
  50.8457560  61.1748920  61.3080610  47.5598000  58.3627830  53.8542040
  46.6327280  58.2965210  54.0830510  47.7122820  59.3007960  53.7397280
  47.5467080  54.6344830  50.8509200  46.6070750  54.7958790  50.9361660
  47.8650340  55.3530510  50.3045190  54.0679840  59.3163350  60.8288230
  53.2398470  59.3856440  60.3538360  54.6630320  59.9017660  60.3604060
  51.5895290  59.9248130  54.3577290  50.9707710  59.5867680  53.7103590
  51.5719740  59.2807890  55.0656480  51.0321850  56.1032670  61.7743100
  50.6193030  56.9286380  62.0283090  50.2997800  55.5177710  61.5819460
  43.1654640  58.8892570  56.6361770  42.7611640  58.1769820  56.1407670
  43.2517760  58.5445810  57.5249810  43.6336340  62.5760130  58.8000980
  43.3364630  61.9705600  58.1208760  44.5836160  62.6137440  58.6890340
  41.8783260  55.6635780  60.4160810  42.4297850  55.7731120  59.6414060
  42.3926770  56.0373380  61.1316040  51.7221950  66.1492000  62.4624080
  51.2452510  66.9564190  62.2696690  51.0383740  65.4970330  62.6150290
  42.7254770  62.3141820  65.4508780  41.8283300  62.5381790  65.6982180
  42.7507640  62.4376760  64.5020180  49.7659990  59.1634940  51.3650040
  50.2053270  58.3257370  51.2187860  50.4788410  59.7964340  51.4514180
  41.5525990  59.1855140  64.0266150  41.4133760  60.0577940  64.3953550
  40.6707350  58.8427950  63.8814090  47.8755370  64.1031010  55.3331280
  48.3151280  64.8455340  54.9186670  47.8142260  64.3457580  56.2570240
  43.3506340  65.1276840  66.2351300  43.3221770  65.5319790  65.3679730
  43.1871310  64.1987200  66.0722900  53.3477130  50.4177750  49.6791080
  53.0349790  50.5104580  50.5790150  54.1089600  50.9958780  49.6288510
  39.8659270  57.7837550  54.1368420  39.7456870  58.5099640  53.5249690
  39.5560160  57.0140460  53.6596330  55.3021160  65.9103940  67.5315470
  55.7780880  66.3886830  68.2104550  55.9228320  65.8421430  66.8060970
  37.5044640  60.9552690  59.9437060  37.5825060  61.0901460  58.9992780
  38.1186320  60.2468580  60.1365180  38.7492270  62.6552880  56.3543240
  38.3420350  62.7967470  55.4996840  39.6405280  62.3713040  56.1514450
  54.7054410  63.1016790  64.6915480  54.8317470  62.8628670  63.7732660
  54.7475790  62.2701330  65.1637560  48.5671150  66.8044790  63.2610290
  49.0815820  66.7152800  64.0632720  47.7240230  67.1504490  63.5538200
  50.5425550  67.0900130  52.6894290  50.3826690  66.8003070  53.5876120
  50.3772260  66.3140260  52.1539520  43.0213930  66.8698660  54.4665910
  42.8456410  65.9534200  54.2533710  42.1669670  67.2285950  54.7063710
  50.2451680  64.5987690  51.2492290  49.5516840  64.5964980  50.5894570
  50.9874540  64.1747010  50.8186460  49.8101610  66.2250400  55.3240780
  50.2658560  65.4439780  55.6379400  50.1494130  66.9357220  55.8681960
  54.5578420  55.1549250  65.6565220  53.9422690  55.6628920  65.1280680
  54.2374840  54.2547580  65.5991160  37.5604160  61.9966860  62.4831520
  37.7235200  61.5272220  61.6650890  38.0256610  61.4890420  63.1480360
  42.3322930  51.1272620  57.5192090  41.8891080  51.9082160  57.1876610
  42.8907920  51.4502510  58.2263030  46.6192740  53.9941140  63.1227410
  46.1572110  54.2024160  63.9347350  46.2170850  53.1800490  62.8198080
  51.6197250  55.2150090  64.2524070  50.7690840  54.9155840  64.5733140
  51.4599040  55.4592100  63.3407890  48.7146960  56.7151840  66.3522860
  49.0400370  55.8815590  66.0125090  49.5027290  57.2380360  66.5001190
  45.4481750  50.7483320  52.3997920  44.8235930  50.7443190  53.1251230
  45.3611870  49.8814280  52.0033890  44.3698830  51.6719950  59.3781690
  44.6671160  52.5782780  59.2973710  44.9184390  51.1838730  58.7641260
  42.1237150  56.2506190  55.2473340  41.8978070  56.0343360  56.1519960
  41.3429680  56.6834650  54.9019310  49.3534910  56.2569560  53.8463990
  48.7543800  56.9805360  53.6627610  49.9014520  56.1946340  53.0640440
  44.5636360  57.1491770  65.9133610  44.4679960  56.2086500  65.7634010
  45.4068340  57.3706840  65.5181680  47.9599780  54.8933100  55.8767270
  48.3529350  55.2105300  55.0635960  48.3216630  54.0144980  55.9911790
  39.6946900  53.5605440  64.0667390  39.3010290  54.4080650  64.2740170
  39.0065300  52.9231810  64.2576030  46.2691950  53.6440410  67.1364130
  45.5790270  53.4512610  67.7710220  47.0124250  53.9275050  67.6688430
  36.9963950  51.4833900  58.0997470  36.7077000  52.0536760  58.8122450
  37.7409710  51.0038350  58.4628700  37.1834180  55.4254020  49.3100190
  37.1008850  56.3684780  49.4515180  36.8317240  55.2828930  48.4312540
  48.5454920  57.4838850  59.9718050  47.8136040  57.9925660  60.3208150
  48.1479260  56.6668830  59.6706830  44.9832310  54.1593050  58.3770540
  44.9868370  53.7183000  57.5275080  45.8783430  54.4810380  58.4842360
  40.8334690  54.0419540  57.3364750  40.4934740  54.5194770  58.0931800
  40.0712010  53.5884660  56.9765850  45.0452460  55.1605130  51.3677300
  45.1665280  55.1191610  52.3163120  44.6600970  56.0229280  51.2124030
  49.0080830  52.9372530  59.3840990  49.0253570  53.3881180  60.2282840
  48.7596410  52.0378170  59.5974430  44.0573960  57.4706270  50.7660600
  43.4890860  57.0224520  50.1396510  44.7662960  57.8299050  50.2325750
  52.4351580  50.3504710  65.2227370  52.7597350  49.6194370  65.7485350
  52.4708090  50.0318350  64.3208360  39.1343140  61.3718290  64.6427330
  38.7497930  60.7311960  65.2410290  39.4455330  62.0754410  65.2122060
  45.2840280  58.2194830  60.1235950  45.6510410  57.7453400  60.8697290
  45.0945340  59.0936400  60.4644290  38.1480770  52.9638520  56.2529420
  37.8627690  52.5994190  57.0908040  38.0859630  52.2318980  55.6392560
  43.0739650  57.2603470  62.4420160  42.7696720  58.1395450  62.6670520
  44.0286110  57.3203260  62.4777600  41.6021440  61.4664460  53.0387010
  40.8283700  60.9262080  52.8785730  42.3316070  60.9471070  52.7004770
  52.3609420  60.4629820  58.8313400  53.0808540  60.9585110  58.4409510
  52.1591240  59.7847710  58.1867270  47.8219360  51.8567780  52.9742790
  47.0083970  51.3580950  52.8988100  47.6281310  52.6966030  52.5579140
  47.7428220  60.5338880  64.7182400  47.6765530  59.6134550  64.4639990
  47.1133360  60.6314320  65.4327040  50.5367750  56.2287430  51.2704950
  51.4247370  56.5404660  51.0956290  50.5072840  55.3559680  50.8785530
  41.6458840  61.1344840  56.6765820  42.1637510  60.3313100  56.6222710
  41.1942860  61.0723980  57.5182650  46.5328340  62.4011120  51.9493120
  46.8744040  63.1453350  51.4536440  45.7041050  62.7142240  52.3117950
  39.1303380  58.1006210  63.5891520  38.7718320  58.7660060  64.1764860
  38.8357940  57.2689760  63.9604140  42.3316500  58.5590450  66.4731070
  42.0316640  58.7047630  65.5758890  43.1027740  57.9995740  66.3804460
  47.6744950  63.3559450  64.4686200  47.6889490  62.4240410  64.2505110
  46.9670050  63.4419210  65.1075970  52.8082020  57.5399270  50.7384810
  52.7245740  57.9713490  49.8881250  53.5276210  57.9997620  51.1711630
  53.8856160  59.9966790  63.8154780  53.1604350  60.5895570  63.6184170
  54.4131620  59.9890330  63.0168150  53.8369270  64.3941530  53.4666940
  53.1945430  63.7397150  53.7410660  53.4499930  64.7996620  52.6907610
  49.4155750  61.7226960  57.3138630  49.7679570  61.1255090  56.6540000
  48.5318080  61.3971190  57.4846880  45.5019030  62.4824650  54.7209040
  46.1890160  63.0293860  55.1016630  44.7151450  63.0265380  54.7558650
  37.6411430  58.0997470  50.2126120  38.5106280  58.3822270  50.4962040
  37.1501750  58.9133340  50.0974930  44.8046240  59.4870680  54.3334400
  45.2609020  60.2975930  54.5594590  44.4534450  59.1693820  55.1652890
  47.1078850  64.9977020  61.5626700  47.7521070  65.2036400  62.2400120
  47.4708290  64.2365420  61.1097550  40.7058020  49.8308330  54.8056920
  40.5772650  49.8226230  55.7541840  39.8820040  50.1691420  54.4547930
  48.3810930  63.0009370  60.2804150  49.0233160  62.3002530  60.3936320
  48.9060280  63.7807810  60.1001040  52.2266650  63.2857990  50.0043290
  52.0004230  62.5688430  50.5967930  51.8362850  63.0370430  49.1665040
  50.1548550  63.8004270  63.4840210  50.4904790  64.3870960  64.1618130
  49.2348890  63.6696980  63.7138000  38.0082680  67.3124850  50.7787750
  38.3680320  67.9114190  50.1245020  37.8675020  67.8584740  51.5522780
  37.7051950  51.5899450  64.2663620  36.9910470  51.7896370  64.8716230
  38.1246990  50.8139020  64.6378420  51.8082900  61.2029930  51.6657450
  51.5204600  61.6642620  52.4535330  52.6035070  60.7427700  51.9341670
  37.9924540  65.5779710  65.2530150  38.1015660  64.6374450  65.1125540
  37.3405100  65.8434460  64.6043880  45.9837130  63.8495600  66.6528270
  45.6634000  63.1304840  67.1973960  45.3095490  64.5250670  66.7264330
  44.0251300  64.6956050  51.5961420  44.0161400  65.4285740  50.9805930
  43.1049660  64.4487630  51.6888380  39.6257940  59.9170940  52.3408180
  39.0185890  60.6569840  52.3503480  40.1007290  60.0070300  51.5146380
  49.1990730  54.0821760  62.0165070  49.5671550  53.2616970  62.3444640
  48.3388930  54.1423650  62.4320720  52.5652760  53.0378700  52.8252630
  51.9365920  53.1424370  52.1110860  52.0704680  53.2575480  53.6146510
  47.0110900  64.7584290  50.2586610  47.1122880  64.5548280  49.3288590
  46.1112640  64.5042570  50.4634390  44.5336790  55.3164650  54.2410510
  43.8252940  55.7850990  54.6824120  44.8181270  54.6586660  54.8755700
  46.1592720  56.7361350  62.2403040  46.6577970  57.2107170  62.9054890
  46.3015670  55.8124870  62.4473070  48.5652220  52.0415310  55.6806300
  48.4420000  52.0601440  54.7315810  49.5136780  52.0894250  55.8004700
  45.6529010  67.2770610  54.9534280  45.9070510  67.2392000  54.0313650
  44.7041490  67.1503940  54.9462530  42.7371810  53.6249730  51.6161220
  43.5862340  54.0619880  51.5501410  42.3703080  53.9369990  52.4433280
  53.3659580  52.9529310  63.0831430  52.8633180  53.6934710  63.4225240
  54.1816240  53.3413310  62.7668220  51.6581590  58.1962490  56.5292790
  50.7171730  58.2112720  56.7040480  51.9725660  57.4098450  56.9753090
  41.6363230  59.8782090  50.0896750  42.4026500  59.7663450  50.6522180
  41.7137920  59.1820060  49.4373520  40.3309990  57.3107160  50.7729640
  40.4113580  56.3634670  50.8847040  41.2229740  57.6414040  50.8790300
  53.6607170  65.3671340  58.2047050  53.7854590  66.1902510  58.6770860
  54.5272730  65.1562070  57.8571200  41.1324700  67.4602550  57.8764180
  41.8687180  66.9118010  58.1472750  41.5165620  68.3258560  57.7370170
  38.0170180  63.5276120  53.7505690  37.0909960  63.7697260  53.7411100
  38.4826610  64.3550380  53.6290440  40.1382980  66.6448620  67.0649760
  40.9395710  66.9660670  67.4785160  39.6234800  66.2844200  67.7869670
  44.2427010  66.6332860  49.6989750  45.0355620  66.9221690  49.2471540
  43.7231360  66.2025030  49.0202230  48.9747610  62.7528490  67.0125170
  48.3685770  62.7760090  66.2720920  48.6701720  62.0211530  67.5492420
  50.4047980  66.4808780  65.6234580  51.3569730  66.3966800  65.5734820
  50.2576200  67.1450490  66.2968370  53.2957180  65.8602990  51.1226490
  53.0098690  65.4468130  50.3080670  53.0976730  66.7890700  51.0027010
  37.8580790  59.1322080  66.0085810  38.3619810  58.5529360  66.5802040
  37.1188210  59.4162310  66.5462180  44.7604410  61.8536270  49.5632100
  44.6555050  61.2388620  50.2893480  44.5928630  61.3302160  48.7795110
  44.9118730  60.5393070  65.5421330  44.1464400  61.1078070  65.4576000
  45.0934690  60.2469280  64.6489560  48.0007140  60.9156300  50.1674090
  47.4517240  61.3625600  50.8116830  48.6226400  60.4105550  50.6911760
  52.0542080  62.2698400  66.0996350  52.7951550  62.6074160  65.5963810
  51.2914760  62.4390460  65.5466120  39.8903870  57.2751670  66.9035880
  39.9309210  56.9765540  67.8121110  40.7449370  57.6759280  66.7443400
  43.6682260  59.8747220  52.0639390  44.0898680  59.7087090  52.9070780
  43.7933100  59.0647450  51.5694530  41.8309680  55.8543770  64.8710370
  41.3006140  55.3634720  64.2433710  42.4997750  56.2827970  64.3368300
  46.1809900  58.8984830  49.3116490  46.7015560  58.1833850  48.9457640
  46.8278300  59.5370700  49.6117000  50.7287740  60.3213230  64.6351560
  51.1428760  60.4758310  65.4841980  49.7938740  60.4468450  64.7977340
  51.2009910  57.6609390  66.6390710  51.7830680  56.9061710  66.5511190
  51.3771680  58.1916830  65.8622190  42.3181980  52.8206140  64.9507660
  42.2238850  52.2026890  64.2258530  41.7379370  53.5472430  64.7237570
  45.0843420  51.3779380  61.9835050  44.6360720  51.4003640  61.1380600
  44.4508620  50.9798400  62.5805350  45.4902970  60.2733710  62.6047490
  45.9091080  61.1166440  62.4323730  44.5711600  60.4105750  62.3754270
  47.8266870  58.0049890  63.9885330  47.9463080  57.4091030  64.7280170
  48.6860870  58.0419580  63.5686630  50.1654770  58.5587080  62.5647840
  49.6389990  59.0829700  61.9612980  50.5086110  59.1914470  63.1957570
  42.5641160  55.9480450  49.0097550  42.3630220  55.0847810  49.3710890
  42.3933210  55.8613810  48.0719150  43.3410390  66.5786720  63.7205220
  42.8031480  67.3032780  63.4013920  43.5944350  66.1017060  62.9302560
  44.5935640  54.5471240  65.2461150  45.1835330  54.2387090  65.9338970
  43.7755880  54.0750990  65.4021050  49.4129070  54.1637050  65.4794170
  48.7244590  53.5018590  65.4144160  50.1335090  53.7175320  65.9242630
  50.0429470  50.7588680  51.5384430  50.3231760  49.9156580  51.8943850
  49.2695200  50.9911790  52.0523180  41.3623960  53.0481070  48.9975430
  41.6649860  53.0548500  48.0894580  42.1018550  52.6978930  49.4943090
  46.1972600  67.8137930  63.9791870  46.1231300  68.7173070  64.2864240
  45.2951440  67.4949830  63.9513940  44.5808890  51.9915690  49.9831630
  44.2330890  51.3139680  49.4034080  44.7821660  51.5305200  50.7975020
  46.7457930  66.9796440  51.6018230  47.6408720  67.3181410  51.6236990
  46.7775560  66.2575850  50.9742510  40.3854090  62.3523490  49.8305230
  40.8228960  62.8953160  50.4862810  40.8701820  61.5270440  49.8401570
  37.5999890  65.1412520  57.2825490  37.9302900  64.2733580  57.0504130
  38.0290890  65.3471040  58.1130450  42.1961810  63.4721530  54.9427460
  41.8957350  63.3486500  55.8431370  42.0899300  62.6130120  54.5343190
  38.0890100  66.0083110  60.0207120  37.6521090  66.1883910  60.8531270
  38.6567780  66.7657730  59.8788840  53.7252280  65.5100110  64.3084430
  53.1254270  65.5692670  63.5648350  53.8546180  64.5705090  64.4381280
  54.9653730  63.2517930  49.6454140  54.1346690  63.3194580  50.1161370
  55.1425560  64.1422050  49.3421000  54.4210190  59.9965410  52.1488340
  55.1829100  60.5662060  52.2548030  54.4364560  59.4292610  52.9196650
  37.9214530  58.5203340  56.3796000  37.2663370  58.2514980  55.7355700
  38.7592480  58.4107820  55.9297980  55.4270160  60.8515510  56.9930270
  55.7978990  60.0682830  56.5866240  56.0672090  61.5404610  56.8147570
  52.4103920  62.2352090  62.4060590  51.5963760  62.6649250  62.6686380
  52.8178120  62.8470500  61.7929640  54.4729360  60.2899780  49.3060860
  54.7478200  61.1978660  49.1780080  54.2840100  60.2262310  50.2422850
  50.8704970  53.3144630  50.6014490  51.2889850  53.1275610  49.7611150
  50.5641030  52.4623680  50.9117420  54.3694700  58.2268770  54.2990290
  53.9938300  57.4596700  53.8671580  53.6397820  58.6091470  54.7865220
  38.9590460  58.9055910  60.9199340  39.3263500  58.8183310  61.7995360
  38.3901280  58.1422460  60.8206200  53.7594320  57.3740290  63.9329810
  53.5280410  57.1453040  63.0327760  54.0198870  58.2939840  63.8874700
  38.5106460  55.8165000  64.8257760  37.6162510  55.7831760  65.1651470
  39.0504010  56.0151790  65.5909010  52.1982390  52.5996720  66.7109510
  53.0752570  52.6080120  67.0943510  52.2103230  51.8627560  66.1001860
  37.1352610  55.7302270  52.3221330  36.2316690  55.9932470  52.1472990
  37.6193230  56.0013440  51.5421290  53.6445660  56.4526260  57.5997530
  54.1683140  55.9588910  56.9687700  54.2305080  56.5876620  58.3445100
  53.8235380  56.5366130  61.1217080  52.8738090  56.5029670  61.2362070
  54.0048390  57.4466240  60.8866850  39.6779820  54.7867810  50.2315710
  40.3871520  54.3651030  49.7462990  38.9619760  54.8543040  49.5999060
  39.3253980  50.8407140  49.2718360  40.0482110  51.3816080  49.5899580
  39.5978500  50.5670560  48.3959900  53.1345630  55.7099610  53.5389940
  53.6304750  55.4770480  54.3238820  52.9361700  54.8711450  53.1227580
  39.0146170  50.0913330  59.1740980  39.6622360  49.5410710  58.7336140
  39.4348010  50.3456480  59.9956790  54.5632790  54.3460560  56.0727620
  54.4532070  54.1916600  57.0109890  55.3240380  53.8181500  55.8303030
  52.9098510  50.2854690  62.5310620  53.5470730  50.8988830  62.8969810
  53.0573400  50.3215350  61.5859850  55.4523060  52.1768480  49.3133760
  56.3772370  52.0449660  49.1052050  55.4298850  52.2561300  50.2670210
  55.5261550  52.9479140  51.9390470  54.7313050  52.8824260  52.4683380
  55.7304830  53.8829780  51.9275820  52.4679970  66.9870690  55.9328860
  53.0639040  66.6655260  55.2563280  52.7258120  66.5142510  56.7242130
  38.7678170  50.2469000  61.9166300  38.4192990  50.7032820  62.6824480
  38.4365870  49.3526130  61.9988730  40.3742540  63.4188600  66.0819490
  40.3312170  63.0481510  66.9633950  40.5053550  64.3566170  66.2221310
  44.0748570  64.9748190  61.6829210  43.8339930  65.2422750  60.7959730
  45.0151210  65.1453920  61.7380070  46.2802990  51.4380880  65.4385720
  46.2191880  52.0302710  66.1881130  47.2203370  51.3306840  65.2935980
  48.9177550  51.0950940  65.0778010  49.5317960  51.4130230  64.4159090
  49.4627110  50.6099530  65.6973870  55.3352730  66.9942570  62.4839850
  54.8411010  67.3911440  61.7666980  54.7266020  66.3691780  62.8777130
  39.4398810  49.7745200  65.1917070  39.9881800  49.5933250  64.4283180
  39.5054120  48.9839310  65.7273380  40.2130570  66.3650850  63.2017270
  39.6190890  66.2335550  63.9407310  40.2054410  65.5288990  62.7359370
  49.6585590  49.6583080  61.4047300  48.7845430  49.9918190  61.2020230
  49.5496340  49.1856260  62.2299170  50.5657570  51.8653950  62.7889020
  50.2370930  51.0505710  62.4090750  51.5139870  51.8223760  62.6654710
  53.0192180  67.6365990  59.7626590  52.5595150  68.3881800  59.3884610
  52.3904640  66.9172460  59.7041390  39.8442800  63.7309230  62.1525310
  39.1176860  63.1114520  62.0851260  39.9051950  64.1249840  61.2823390
  43.4487900  65.9454230  58.9374720  43.9652920  65.3341590  58.4122980
  44.0985280  66.4483010  59.4285730  46.1883400  66.8362720  59.7643700
  46.4761210  66.5817020  58.8876710  46.7006620  66.2840080  60.3549270
  47.4060410  50.5752920  60.3440210  46.6232200  51.0498420  60.6236970
  47.1123340  49.6707750  60.2353390  51.9581480  51.2776020  58.3889300
  52.3989570  51.2221120  57.5410900  51.6889070  52.1934030  58.4599480
  53.8220050  50.9091260  56.3998120  53.7608450  49.9652480  56.2529140
  54.6012080  51.0171350  56.9451580  38.1272800  67.0483620  55.3622070
  37.9594840  66.4154300  56.0603960  37.2607310  67.2543020  55.0116260
  38.7500820  50.8800400  52.8653930  39.5080180  50.9929280  52.2917960
  38.2877990  51.7169600  52.8197360  45.2914630  52.9939670  55.8556240
  44.4789140  52.6196560  55.5152120  45.7956270  52.2384750  56.1577430
  49.7939610  49.6582120  57.0939310  50.3968980  50.2302330  57.5687830
  49.0532600  50.2221560  56.8713210  52.9374210  50.0603680  52.3679590
  53.1324840  50.9587130  52.6347020  52.1504080  49.8290760  52.8612540
  39.7335500  65.7416850  52.8072210  39.2083120  66.1224880  52.1034170
  39.6580080  66.3667620  53.5281920  41.1225970  51.4064450  51.4055900
  41.6518730  50.6194250  51.2763850  41.7554290  52.0855640  51.6391430
  43.3163810  51.1439590  54.4601290  42.6866550  50.4426900  54.6271420
  42.7768950  51.9043720  54.2434450  46.2555760  67.7578820  67.1311900
  47.1823070  67.5223090  67.1747860  46.2406190  68.5850820  66.6497930
  54.4900820  67.3004390  54.1286150  54.6653010  66.6142130  53.4847070
  53.7922390  67.8251440  53.7362820  43.4419370  50.4223570  66.8953780
  43.1603640  50.9257170  66.1314600  43.8239070  49.6245320  66.5295910
  42.3328470  67.6899230  51.6821460  43.0647290  67.4058510  51.1345350
  42.5922140  67.4512510  52.5720840  41.4943260  63.8063960  51.6867790
  40.8652140  64.2749060  52.2353620  41.6091090  62.9613180  52.1213980
  50.0434830  49.8377150  67.4734250  49.9300280  50.1571760  68.3685770
  50.8604570  50.2389660  67.1771530  52.8233320  66.9848680  66.9552940
  53.6158640  66.4897910  66.7478900  53.1166470  67.6638820  67.5628550
  48.9492980  57.8569620  37.8368990  48.8687030  56.9424230  37.5660700
  48.5357400  58.3536690  37.1308700  47.0811020  59.6348640  39.7178260
  46.3053120  59.1549080  40.0076830  47.7323950  58.9554290  39.5434420
  41.0976850  59.9468450  40.5954020  40.2661730  59.6917160  40.9950530
  41.7057830  60.0179220  41.3311940  51.1018450  64.0408830  38.4977390
  50.6399980  63.2696070  38.8264560  51.9144000  64.0674900  39.0029840
  41.0778110  63.9808540  40.7912040  41.3806150  63.0906280  40.6122260
  41.8221700  64.5378760  40.5634290  39.5068800  54.9070340  34.3796410
  38.6185500  55.2486310  34.2776290  39.7909990  54.7070660  33.4877240
  37.4701810  57.5075990  40.2636110  38.0417920  56.7398190  40.2639750
  37.4703350  57.8064750  39.3542720  47.3281760  66.3266840  38.1181380
  46.7093200  66.7824340  37.5475820  48.1833540  66.4818300  37.7171080
  46.5220010  62.3105830  39.7248420  46.4528290  61.3695770  39.5637550
  47.2839870  62.4007240  40.2970990  38.7126680  52.9160350  42.0505040
  38.5329520  52.0186100  42.3307800  38.3106760  53.4632220  42.7251990
  47.5525180  55.1176210  39.9517350  47.9290000  54.2448090  39.8391020
  47.4544690  55.4534910  39.0607790  41.6830190  53.4901840  35.4134790
  41.7896940  54.3905570  35.7203550  40.7722550  53.4419810  35.1229440
  51.3349300  52.6126650  36.8845690  52.1558920  52.1223220  36.9271170
  51.3683380  53.2024310  37.6377530  39.3313350  55.4120850  40.6587380
  40.0123460  55.6759220  41.2774780  39.0161400  54.5721720  40.9925390
  43.5237920  56.4588210  39.7459970  44.0316140  56.9569180  40.3864990
  44.0551160  55.6823410  39.5699330  55.6248850  54.6293400  43.4489320
  54.9201020  55.0175110  42.9304430  55.8906770  55.3243690  44.0510250
  41.8074020  51.0986770  44.0123390  41.8092460  51.6159160  43.2069290
  40.9778330  50.6216950  43.9893320  48.1945110  61.2106080  35.5113290
  47.5762380  61.6755530  34.9476010  48.7068360  61.9033560  35.9282800
  43.0576870  60.7381950  42.1896890  42.7246250  61.3650870  42.8317960
  43.2343550  61.2643830  41.4098560  51.5710780  54.5527030  39.6573230
  50.8666350  54.8411920  40.2376340  51.9322940  55.3627140  39.2972790
  41.4889350  52.8096730  42.0193840  41.8306160  53.6538780  41.7247710
  40.5505160  52.9580470  42.1359180  42.2695970  62.7062750  44.0046070
  42.8869970  63.3813830  43.7230520  41.4089090  63.1150730  43.9133570
  37.5628310  61.8962610  32.8852920  37.1856290  62.3849710  32.1537820
  37.8201380  62.5687890  33.5159450  53.1873560  64.1702160  41.9200710
  52.5037080  64.8401270  41.9117380  53.7267850  64.3682810  41.1545570
  54.6397700  53.9981820  40.0482440  53.6922610  54.0320800  40.1797870
  54.9647690  54.8120770  40.4331800  45.1717240  50.2979000  38.3438430
  45.4792220  49.7425890  37.6273930  44.2417940  50.4323460  38.1611420
  50.7232300  66.0146290  40.6345890  50.7359460  65.6108580  39.7668150
  50.1707520  66.7893580  40.5307320  52.0177720  62.7362510  35.7236060
  51.9074050  61.7936840  35.8485480  52.0145970  63.0978150  36.6098820
  50.1217740  60.9176130  41.9628500  50.5386530  60.7036240  41.1281960
  50.8457560  61.1748920  42.5337120  47.5598000  58.3627830  35.0798550
  46.6327280  58.2965210  35.3087020  47.7122820  59.3007960  34.9653790
  47.5467080  54.6344830  32.0765710  46.6070750  54.7958790  32.1618170
  47.8650340  55.3530510  31.5301700  54.0679840  59.3163350  42.0544740
  53.2398470  59.3856440  41.5794870  54.6630320  59.9017660  41.5860570
  51.5895290  59.9248130  35.5833800  50.9707710  59.5867680  34.9360100
  51.5719740  59.2807890  36.2912990  51.0321850  56.1032670  42.9999610
  50.6193030  56.9286380  43.2539600  50.2997800  55.5177710  42.8075970
  43.1654640  58.8892570  37.8618280  42.7611640  58.1769820  37.3664180
  43.2517760  58.5445810  38.7506320  43.6336340  62.5760130  40.0257490
  43.3364630  61.9705600  39.3465270  44.5836160  62.6137440  39.9146850
  41.8783260  55.6635780  41.6417320  42.4297850  55.7731120  40.8670570
  42.3926770  56.0373380  42.3572550  51.7221950  66.1492000  43.6880590
  51.2452510  66.9564190  43.4953200  51.0383740  65.4970330  43.8406800
  42.7254770  62.3141820  46.6765290  41.8283300  62.5381790  46.9238690
  42.7507640  62.4376760  45.7276690  49.7659990  59.1634940  32.5906550
  50.2053270  58.3257370  32.4444370  50.4788410  59.7964340  32.6770690
  41.5525990  59.1855140  45.2522660  41.4133760  60.0577940  45.6210060
  40.6707350  58.8427950  45.1070600  47.8755370  64.1031010  36.5587790
  48.3151280  64.8455340  36.1443180  47.8142260  64.3457580  37.4826750
  43.3506340  65.1276840  47.4607810  43.3221770  65.5319790  46.5936240
  43.1871310  64.1987200  47.2979410  53.3477130  50.4177750  30.9047590
  53.0349790  50.5104580  31.8046660  54.1089600  50.9958780  30.8545020
  39.8659270  57.7837550  35.3624930  39.7456870  58.5099640  34.7506200
  39.5560160  57.0140460  34.8852840  55.3021160  65.9103940  48.7571980
  55.7780880  66.3886830  49.4361060  55.9228320  65.8421430  48.0317480
  37.5044640  60.9552690  41.1693570  37.5825060  61.0901460  40.2249290
  38.1186320  60.2468580  41.3621690  38.7492270  62.6552880  37.5799750
  38.3420350  62.7967470  36.7253350  39.6405280  62.3713040  37.3770960
  54.7054410  63.1016790  45.9171990  54.8317470  62.8628670  44.9989170
  54.7475790  62.2701330  46.3894070  48.5671150  66.8044790  44.4866800
  49.0815820  66.7152800  45.2889230  47.7240230  67.1504490  44.7794710
  50.5425550  67.0900130  33.9150800  50.3826690  66.8003070  34.8132630
  50.3772260  66.3140260  33.3796030  43.0213930  66.8698660  35.6922420
  42.8456410  65.9534200  35.4790220  42.1669670  67.2285950  35.9320220
  50.2451680  64.5987690  32.4748800  49.5516840  64.5964980  31.8151080
  50.9874540  64.1747010  32.0442970  49.8101610  66.2250400  36.5497290
  50.2658560  65.4439780  36.8635910  50.1494130  66.9357220  37.0938470
  54.5578420  55.1549250  46.8821730  53.9422690  55.6628920  46.3537190
  54.2374840  54.2547580  46.8247670  37.5604160  61.9966860  43.7088030
  37.7235200  61.5272220  42.8907400  38.0256610  61.4890420  44.3736870
  42.3322930  51.1272620  38.7448600  41.8891080  51.9082160  38.4133120
  42.8907920  51.4502510  39.4519540  46.6192740  53.9941140  44.3483920
  46.1572110  54.2024160  45.1603860  46.2170850  53.1800490  44.0454590
  51.6197250  55.2150090  45.4780580  50.7690840  54.9155840  45.7989650
  51.4599040  55.4592100  44.5664400  48.7146960  56.7151840  47.5779370
  49.0400370  55.8815590  47.2381600  49.5027290  57.2380360  47.7257700
  45.4481750  50.7483320  33.6254430  44.8235930  50.7443190  34.3507740
  45.3611870  49.8814280  33.2290400  44.3698830  51.6719950  40.6038200
  44.6671160  52.5782780  40.5230220  44.9184390  51.1838730  39.9897770
  42.1237150  56.2506190  36.4729850  41.8978070  56.0343360  37.3776470
  41.3429680  56.6834650  36.1275820  49.3534910  56.2569560  35.0720500
  48.7543800  56.9805360  34.8884120  49.9014520  56.1946340  34.2896950
  44.5636360  57.1491770  47.1390120  44.4679960  56.2086500  46.9890520
  45.4068340  57.3706840  46.7438190  47.9599780  54.8933100  37.1023780
  48.3529350  55.2105300  36.2892470  48.3216630  54.0144980  37.2168300
  39.6946900  53.5605440  45.2923900  39.3010290  54.4080650  45.4996680
  39.0065300  52.9231810  45.4832540  46.2691950  53.6440410  48.3620640
  45.5790270  53.4512610  48.9966730  47.0124250  53.9275050  48.8944940
  36.9963950  51.4833900  39.3253980  36.7077000  52.0536760  40.0378960
  37.7409710  51.0038350  39.6885210  37.1834180  55.4254020  30.5356700
  37.1008850  56.3684780  30.6771690  36.8317240  55.2828930  29.6569050
  48.5454920  57.4838850  41.1974560  47.8136040  57.9925660  41.5464660
  48.1479260  56.6668830  40.8963340  44.9832310  54.1593050  39.6027050
  44.9868370  53.7183000  38.7531590  45.8783430  54.4810380  39.7098870
  40.8334690  54.0419540  38.5621260  40.4934740  54.5194770  39.3188310
  40.0712010  53.5884660  38.2022360  45.0452460  55.1605130  32.5933810
  45.1665280  55.1191610  33.5419630  44.6600970  56.0229280  32.4380540
  49.0080830  52.9372530  40.6097500  49.0253570  53.3881180  41.4539350
  48.7596410  52.0378170  40.8230940  44.0573960  57.4706270  31.9917110
  43.4890860  57.0224520  31.3653020  44.7662960  57.8299050  31.4582260
  52.4351580  50.3504710  46.4483880  52.7597350  49.6194370  46.9741860
  52.4708090  50.0318350  45.5464870  39.1343140  61.3718290  45.8683840
  38.7497930  60.7311960  46.4666800  39.4455330  62.0754410  46.4378570
  45.2840280  58.2194830  41.3492460  45.6510410  57.7453400  42.0953800
  45.0945340  59.0936400  41.6900800  38.1480770  52.9638520  37.4785930
  37.8627690  52.5994190  38.3164550  38.0859630  52.2318980  36.8649070
  43.0739650  57.2603470  43.6676670  42.7696720  58.1395450  43.8927030
  44.0286110  57.3203260  43.7034110  41.6021440  61.4664460  34.2643520
  40.8283700  60.9262080  34.1042240  42.3316070  60.9471070  33.9261280
  52.3609420  60.4629820  40.0569910  53.0808540  60.9585110  39.6666020
  52.1591240  59.7847710  39.4123780  47.8219360  51.8567780  34.1999300
  47.0083970  51.3580950  34.1244610  47.6281310  52.6966030  33.7835650
  47.7428220  60.5338880  45.9438910  47.6765530  59.6134550  45.6896500
  47.1133360  60.6314320  46.6583550  50.5367750  56.2287430  32.4961460
  51.4247370  56.5404660  32.3212800  50.5072840  55.3559680  32.1042040
  41.6458840  61.1344840  37.9022330  42.1637510  60.3313100  37.8479220
  41.1942860  61.0723980  38.7439160  46.5328340  62.4011120  33.1749630
  46.8744040  63.1453350  32.6792950  45.7041050  62.7142240  33.5374460
  39.1303380  58.1006210  44.8148030  38.7718320  58.7660060  45.4021370
  38.8357940  57.2689760  45.1860650  42.3316500  58.5590450  47.6987580
  42.0316640  58.7047630  46.8015400  43.1027740  57.9995740  47.6060970
  47.6744950  63.3559450  45.6942710  47.6889490  62.4240410  45.4761620
  46.9670050  63.4419210  46.3332480  52.8082020  57.5399270  31.9641320
  52.7245740  57.9713490  31.1137760  53.5276210  57.9997620  32.3968140
  53.8856160  59.9966790  45.0411290  53.1604350  60.5895570  44.8440680
  54.4131620  59.9890330  44.2424660  53.8369270  64.3941530  34.6923450
  53.1945430  63.7397150  34.9667170  53.4499930  64.7996620  33.9164120
  49.4155750  61.7226960  38.5395140  49.7679570  61.1255090  37.8796510
  48.5318080  61.3971190  38.7103390  45.5019030  62.4824650  35.9465550
  46.1890160  63.0293860  36.3273140  44.7151450  63.0265380  35.9815160
  37.6411430  58.0997470  31.4382630  38.5106280  58.3822270  31.7218550
  37.1501750  58.9133340  31.3231440  44.8046240  59.4870680  35.5590910
  45.2609020  60.2975930  35.7851100  44.4534450  59.1693820  36.3909400
  47.1078850  64.9977020  42.7883210  47.7521070  65.2036400  43.4656630
  47.4708290  64.2365420  42.3354060  40.7058020  49.8308330  36.0313430
  40.5772650  49.8226230  36.9798350  39.8820040  50.1691420  35.6804440
  48.3810930  63.0009370  41.5060660  49.0233160  62.3002530  41.6192830
  48.9060280  63.7807810  41.3257550  52.2266650  63.2857990  31.2299800
  52.0004230  62.5688430  31.8224440  51.8362850  63.0370430  30.3921550
  50.1548550  63.8004270  44.7096720  50.4904790  64.3870960  45.3874640
  49.2348890  63.6696980  44.9394510  38.0082680  67.3124850  32.0044260
  38.3680320  67.9114190  31.3501530  37.8675020  67.8584740  32.7779290
  37.7051950  51.5899450  45.4920130  36.9910470  51.7896370  46.0972740
  38.1246990  50.8139020  45.8634930  51.8082900  61.2029930  32.8913960
  51.5204600  61.6642620  33.6791840  52.6035070  60.7427700  33.1598180
  37.9924540  65.5779710  46.4786660  38.1015660  64.6374450  46.3382050
  37.3405100  65.8434460  45.8300390  45.9837130  63.8495600  47.8784780
  45.6634000  63.1304840  48.4230470  45.3095490  64.5250670  47.9520840
  44.0251300  64.6956050  32.8217930  44.0161400  65.4285740  32.2062440
  43.1049660  64.4487630  32.9144890  39.6257940  59.9170940  33.5664690
  39.0185890  60.6569840  33.5759990  40.1007290  60.0070300  32.7402890
  49.1990730  54.0821760  43.2421580  49.5671550  53.2616970  43.5701150
  48.3388930  54.1423650  43.6577230  52.5652760  53.0378700  34.0509140
  51.9365920  53.1424370  33.3367370  52.0704680  53.2575480  34.8403020
  47.0110900  64.7584290  31.4843120  47.1122880  64.5548280  30.5545100
  46.1112640  64.5042570  31.6890900  44.5336790  55.3164650  35.4667020
  43.8252940  55.7850990  35.9080630  44.8181270  54.6586660  36.1012210
  46.1592720  56.7361350  43.4659550  46.6577970  57.2107170  44.1311400
  46.3015670  55.8124870  43.6729580  48.5652220  52.0415310  36.9062810
  48.4420000  52.0601440  35.9572320  49.5136780  52.0894250  37.0261210
  45.6529010  67.2770610  36.1790790  45.9070510  67.2392000  35.2570160
  44.7041490  67.1503940  36.1719040  42.7371810  53.6249730  32.8417730
  43.5862340  54.0619880  32.7757920  42.3703080  53.9369990  33.6689790
  53.3659580  52.9529310  44.3087940  52.8633180  53.6934710  44.6481750
  54.1816240  53.3413310  43.9924730  51.6581590  58.1962490  37.7549300
  50.7171730  58.2112720  37.9296990  51.9725660  57.4098450  38.2009600
  41.6363230  59.8782090  31.3153260  42.4026500  59.7663450  31.8778690
  41.7137920  59.1820060  30.6630030  40.3309990  57.3107160  31.9986150
  40.4113580  56.3634670  32.1103550  41.2229740  57.6414040  32.1046810
  53.6607170  65.3671340  39.4303560  53.7854590  66.1902510  39.9027370
  54.5272730  65.1562070  39.0827710  41.1324700  67.4602550  39.1020690
  41.8687180  66.9118010  39.3729260  41.5165620  68.3258560  38.9626680
  38.0170180  63.5276120  34.9762200  37.0909960  63.7697260  34.9667610
  38.4826610  64.3550380  34.8546950  40.1382980  66.6448620  48.2906270
  40.9395710  66.9660670  48.7041670  39.6234800  66.2844200  49.0126180
  44.2427010  66.6332860  30.9246260  45.0355620  66.9221690  30.4728050
  43.7231360  66.2025030  30.2458740  48.9747610  62.7528490  48.2381680
  48.3685770  62.7760090  47.4977430  48.6701720  62.0211530  48.7748930
  50.4047980  66.4808780  46.8491090  51.3569730  66.3966800  46.7991330
  50.2576200  67.1450490  47.5224880  53.2957180  65.8602990  32.3483000
  53.0098690  65.4468130  31.5337180  53.0976730  66.7890700  32.2283520
  37.8580790  59.1322080  47.2342320  38.3619810  58.5529360  47.8058550
  37.1188210  59.4162310  47.7718690  44.7604410  61.8536270  30.7888610
  44.6555050  61.2388620  31.5149990  44.5928630  61.3302160  30.0051620
  44.9118730  60.5393070  46.7677840  44.1464400  61.1078070  46.6832510
  45.0934690  60.2469280  45.8746070  48.0007140  60.9156300  31.3930600
  47.4517240  61.3625600  32.0373340  48.6226400  60.4105550  31.9168270
  52.0542080  62.2698400  47.3252860  52.7951550  62.6074160  46.8220320
  51.2914760  62.4390460  46.7722630  39.8903870  57.2751670  48.1292390
  39.9309210  56.9765540  49.0377620  40.7449370  57.6759280  47.9699910
  43.6682260  59.8747220  33.2895900  44.0898680  59.7087090  34.1327290
  43.7933100  59.0647450  32.7951040  41.8309680  55.8543770  46.0966880
  41.3006140  55.3634720  45.4690220  42.4997750  56.2827970  45.5624810
  46.1809900  58.8984830  30.5373000  46.7015560  58.1833850  30.1714150
  46.8278300  59.5370700  30.8373510  50.7287740  60.3213230  45.8608070
  51.1428760  60.4758310  46.7098490  49.7938740  60.4468450  46.0233850
  51.2009910  57.6609390  47.8647220  51.7830680  56.9061710  47.7767700
  51.3771680  58.1916830  47.0878700  42.3181980  52.8206140  46.1764170
  42.2238850  52.2026890  45.4515040  41.7379370  53.5472430  45.9494080
  45.0843420  51.3779380  43.2091560  44.6360720  51.4003640  42.3637110
  44.4508620  50.9798400  43.8061860  45.4902970  60.2733710  43.8304000
  45.9091080  61.1166440  43.6580240  44.5711600  60.4105750  43.6010780
  47.8266870  58.0049890  45.2141840  47.9463080  57.4091030  45.9536680
  48.6860870  58.0419580  44.7943140  50.1654770  58.5587080  43.7904350
  49.6389990  59.0829700  43.1869490  50.5086110  59.1914470  44.4214080
  42.5641160  55.9480450  30.2354060  42.3630220  55.0847810  30.5967400
  42.3933210  55.8613810  29.2975660  43.3410390  66.5786720  44.9461730
  42.8031480  67.3032780  44.6270430  43.5944350  66.1017060  44.1559070
  44.5935640  54.5471240  46.4717660  45.1835330  54.2387090  47.1595480
  43.7755880  54.0750990  46.6277560  49.4129070  54.1637050  46.7050680
  48.7244590  53.5018590  46.6400670  50.1335090  53.7175320  47.1499140
  50.0429470  50.7588680  32.7640940  50.3231760  49.9156580  33.1200360
  49.2695200  50.9911790  33.2779690  41.3623960  53.0481070  30.2231940
  41.6649860  53.0548500  29.3151090  42.1018550  52.6978930  30.7199600
  46.1972600  67.8137930  45.2048380  46.1231300  68.7173070  45.5120750
  45.2951440  67.4949830  45.1770450  44.5808890  51.9915690  31.2088140
  44.2330890  51.3139680  30.6290590  44.7821660  51.5305200  32.0231530
  46.7457930  66.9796440  32.8274740  47.6408720  67.3181410  32.8493500
  46.7775560  66.2575850  32.1999020  40.3854090  62.3523490  31.0561740
  40.8228960  62.8953160  31.7119320  40.8701820  61.5270440  31.0658080
  37.5999890  65.1412520  38.5082000  37.9302900  64.2733580  38.2760640
  38.0290890  65.3471040  39.3386960  42.1961810  63.4721530  36.1683970
  41.8957350  63.3486500  37.0687880  42.0899300  62.6130120  35.7599700
  38.0890100  66.0083110  41.2463630  37.6521090  66.1883910  42.0787780
  38.6567780  66.7657730  41.1045350  53.7252280  65.5100110  45.5340940
  53.1254270  65.5692670  44.7904860  53.8546180  64.5705090  45.6637790
  54.9653730  63.2517930  30.8710650  54.1346690  63.3194580  31.3417880
  55.1425560  64.1422050  30.5677510  54.4210190  59.9965410  33.3744850
  55.1829100  60.5662060  33.4804540  54.4364560  59.4292610  34.1453160
  37.9214530  58.5203340  37.6052510  37.2663370  58.2514980  36.9612210
  38.7592480  58.4107820  37.1554490  55.4270160  60.8515510  38.2186780
  55.7978990  60.0682830  37.8122750  56.0672090  61.5404610  38.0404080
  52.4103920  62.2352090  43.6317100  51.5963760  62.6649250  43.8942890
  52.8178120  62.8470500  43.0186150  54.4729360  60.2899780  30.5317370
  54.7478200  61.1978660  30.4036590  54.2840100  60.2262310  31.4679360
  50.8704970  53.3144630  31.8271000  51.2889850  53.1275610  30.9867660
  50.5641030  52.4623680  32.1373930  54.3694700  58.2268770  35.5246800
  53.9938300  57.4596700  35.0928090  53.6397820  58.6091470  36.0121730
  38.9590460  58.9055910  42.1455850  39.3263500  58.8183310  43.0251870
  38.3901280  58.1422460  42.0462710  53.7594320  57.3740290  45.1586320
  53.5280410  57.1453040  44.2584270  54.0198870  58.2939840  45.1131210
  38.5106460  55.8165000  46.0514270  37.6162510  55.7831760  46.3907980
  39.0504010  56.0151790  46.8165520  52.1982390  52.5996720  47.9366020
  53.0752570  52.6080120  48.3200020  52.2103230  51.8627560  47.3258370
  37.1352610  55.7302270  33.5477840  36.2316690  55.9932470  33.3729500
  37.6193230  56.0013440  32.7677800  53.6445660  56.4526260  38.8254040
  54.1683140  55.9588910  38.1944210  54.2305080  56.5876620  39.5701610
  53.8235380  56.5366130  42.3473590  52.8738090  56.5029670  42.4618580
  54.0048390  57.4466240  42.1123360  39.6779820  54.7867810  31.4572220
  40.3871520  54.3651030  30.9719500  38.9619760  54.8543040  30.8255570
  39.3253980  50.8407140  30.4974870  40.0482110  51.3816080  30.8156090
  39.5978500  50.5670560  29.6216410  53.1345630  55.7099610  34.7646450
  53.6304750  55.4770480  35.5495330  52.9361700  54.8711450  34.3484090
  39.0146170  50.0913330  40.3997490  39.6622360  49.5410710  39.9592650
  39.4348010  50.3456480  41.2213300  54.5632790  54.3460560  37.2984130
  54.4532070  54.1916600  38.2366400  55.3240380  53.8181500  37.0559540
  52.9098510  50.2854690  43.7567130  53.5470730  50.8988830  44.1226320
  53.0573400  50.3215350  42.8116360  55.4523060  52.1768480  30.5390270
  56.3772370  52.0449660  30.3308560  55.4298850  52.2561300  31.4926720
  55.5261550  52.9479140  33.1646980  54.7313050  52.8824260  33.6939890
  55.7304830  53.8829780  33.1532330  52.4679970  66.9870690  37.1585370
  53.0639040  66.6655260  36.4819790  52.7258120  66.5142510  37.9498640
  38.7678170  50.2469000  43.1422810  38.4192990  50.7032820  43.9080990
  38.4365870  49.3526130  43.2245240  40.3742540  63.4188600  47.3076000
  40.3312170  63.0481510  48.1890460  40.5053550  64.3566170  47.4477820
  44.0748570  64.9748190  42.9085720  43.8339930  65.2422750  42.0216240
  45.0151210  65.1453920  42.9636580  46.2802990  51.4380880  46.6642230
  46.2191880  52.0302710  47.4137640  47.2203370  51.3306840  46.5192490
  48.9177550  51.0950940  46.3034520  49.5317960  51.4130230  45.6415600
  49.4627110  50.6099530  46.9230380  55.3352730  66.9942570  43.7096360
  54.8411010  67.3911440  42.9923490  54.7266020  66.3691780  44.1033640
  39.4398810  49.7745200  46.4173580  39.9881800  49.5933250  45.6539690
  39.5054120  48.9839310  46.9529890  40.2130570  66.3650850  44.4273780
  39.6190890  66.2335550  45.1663820  40.2054410  65.5288990  43.9615880
  49.6585590  49.6583080  42.6303810  48.7845430  49.9918190  42.4276740
  49.5496340  49.1856260  43.4555680  50.5657570  51.8653950  44.0145530
  50.2370930  51.0505710  43.6347260  51.5139870  51.8223760  43.8911220
  53.0192180  67.6365990  40.9883100  52.5595150  68.3881800  40.6141120
  52.3904640  66.9172460  40.9297900  39.8442800  63.7309230  43.3781820
  39.1176860  63.1114520  43.3107770  39.9051950  64.1249840  42.5079900
  43.4487900  65.9454230  40.1631230  43.9652920  65.3341590  39.6379490
  44.0985280  66.4483010  40.6542240  46.1883400  66.8362720  40.9900210
  46.4761210  66.5817020  40.1133220  46.7006620  66.2840080  41.5805780
  47.4060410  50.5752920  41.5696720  46.6232200  51.0498420  41.8493480
  47.1123340  49.6707750  41.4609900  51.9581480  51.2776020  39.6145810
  52.3989570  51.2221120  38.7667410  51.6889070  52.1934030  39.6855990
  53.8220050  50.9091260  37.6254630  53.7608450  49.9652480  37.4785650
  54.6012080  51.0171350  38.1708090  38.1272800  67.0483620  36.5878580
  37.9594840  66.4154300  37.2860470  37.2607310  67.2543020  36.2372770
  38.7500820  50.8800400  34.0910440  39.5080180  50.9929280  33.5174470
  38.2877990  51.7169600  34.0453870  45.2914630  52.9939670  37.0812750
  44.4789140  52.6196560  36.7408630  45.7956270  52.2384750  37.3833940
  49.7939610  49.6582120  38.3195820  50.3968980  50.2302330  38.7944340
  49.0532600  50.2221560  38.0969720  52.9374210  50.0603680  33.5936100
  53.1324840  50.9587130  33.8603530  52.1504080  49.8290760  34.0869050
  39.7335500  65.7416850  34.0328720  39.2083120  66.1224880  33.3290680
  39.6580080  66.3667620  34.7538430  41.1225970  51.4064450  32.6312410
  41.6518730  50.6194250  32.5020360  41.7554290  52.0855640  32.8647940
  43.3163810  51.1439590  35.6857800  42.6866550  50.4426900  35.8527930
  42.7768950  51.9043720  35.4690960  46.2555760  67.7578820  48.3568410
  47.1823070  67.5223090  48.4004370  46.2406190  68.5850820  47.8754440
  54.4900820  67.3004390  35.3542660  54.6653010  66.6142130  34.7103580
  53.7922390  67.8251440  34.9619330  43.4419370  50.4223570  48.1210290
  43.1603640  50.9257170  47.3571110  43.8239070  49.6245320  47.7552420
  42.3328470  67.6899230  32.9077970  43.0647290  67.4058510  32.3601860
  42.5922140  67.4512510  33.7977350  41.4943260  63.8063960  32.9124300
  40.8652140  64.2749060  33.4610130  41.6091090  62.9613180  33.3470490
  50.0434830  49.8377150  48.6990760  49.9300280  50.1571760  49.5942280
  50.8604570  50.2389660  48.4028040  52.8233320  66.9848680  48.1809450
  53.6158640  66.4897910  47.9735410  53.1166470  67.6638820  48.7885060
  48.9492980  57.8569620  19.0625500  48.8687030  56.9424230  18.7917210
  48.5357400  58.3536690  18.3565210  47.0811020  59.6348640  20.9434770
  46.3053120  59.1549080  21.2333340  47.7323950  58.9554290  20.7690930
  41.0976850  59.9468450  21.8210530  40.2661730  59.6917160  22.2207040
  41.7057830  60.0179220  22.5568450  51.1018450  64.0408830  19.7233900
  50.6399980  63.2696070  20.0521070  51.9144000  64.0674900  20.2286350
  41.0778110  63.9808540  22.0168550  41.3806150  63.0906280  21.8378770
  41.8221700  64.5378760  21.7890800  39.5068800  54.9070340  15.6052920
  38.6185500  55.2486310  15.5032800  39.7909990  54.7070660  14.7133750
  37.4701810  57.5075990  21.4892620  38.0417920  56.7398190  21.4896260
  37.4703350  57.8064750  20.5799230  47.3281760  66.3266840  19.3437890
  46.7093200  66.7824340  18.7732330  48.1833540  66.4818300  18.9427590
  46.5220010  62.3105830  20.9504930  46.4528290  61.3695770  20.7894060
  47.2839870  62.4007240  21.5227500  38.7126680  52.9160350  23.2761550
  38.5329520  52.0186100  23.5564310  38.3106760  53.4632220  23.9508500
  47.5525180  55.1176210  21.1773860  47.9290000  54.2448090  21.0647530
  47.4544690  55.4534910  20.2864300  41.6830190  53.4901840  16.6391300
  41.7896940  54.3905570  16.9460060  40.7722550  53.4419810  16.3485950
  51.3349300  52.6126650  18.1102200  52.1558920  52.1223220  18.1527680
  51.3683380  53.2024310  18.8634040  39.3313350  55.4120850  21.8843890
  40.0123460  55.6759220  22.5031290  39.0161400  54.5721720  22.2181900
  43.5237920  56.4588210  20.9716480  44.0316140  56.9569180  21.6121500
  44.0551160  55.6823410  20.7955840  55.6248850  54.6293400  24.6745830
  54.9201020  55.0175110  24.1560940  55.8906770  55.3243690  25.2766760
  41.8074020  51.0986770  25.2379900  41.8092460  51.6159160  24.4325800
  40.9778330  50.6216950  25.2149830  48.1945110  61.2106080  16.7369800
  47.5762380  61.6755530  16.1732520  48.7068360  61.9033560  17.1539310
  43.0576870  60.7381950  23.4153400  42.7246250  61.3650870  24.0574470
  43.2343550  61.2643830  22.6355070  51.5710780  54.5527030  20.8829740
  50.8666350  54.8411920  21.4632850  51.9322940  55.3627140  20.5229300
  41.4889350  52.8096730  23.2450350  41.8306160  53.6538780  22.9504220
  40.5505160  52.9580470  23.3615690  42.2695970  62.7062750  25.2302580
  42.8869970  63.3813830  24.9487030  41.4089090  63.1150730  25.1390080
  37.5628310  61.8962610  14.1109430  37.1856290  62.3849710  13.3794330
  37.8201380  62.5687890  14.7415960  53.1873560  64.1702160  23.1457220
  52.5037080  64.8401270  23.1373890  53.7267850  64.3682810  22.3802080
  54.6397700  53.9981820  21.2738950  53.6922610  54.0320800  21.4054380
  54.9647690  54.8120770  21.6588310  45.1717240  50.2979000  19.5694940
  45.4792220  49.7425890  18.8530440  44.2417940  50.4323460  19.3867930
  50.7232300  66.0146290  21.8602400  50.7359460  65.6108580  20.9924660
  50.1707520  66.7893580  21.7563830  52.0177720  62.7362510  16.9492570
  51.9074050  61.7936840  17.0741990  52.0145970  63.0978150  17.8355330
  50.1217740  60.9176130  23.1885010  50.5386530  60.7036240  22.3538470
  50.8457560  61.1748920  23.7593630  47.5598000  58.3627830  16.3055060
  46.6327280  58.2965210  16.5343530  47.7122820  59.3007960  16.1910300
  47.5467080  54.6344830  13.3022220  46.6070750  54.7958790  13.3874680
  47.8650340  55.3530510  12.7558210  54.0679840  59.3163350  23.2801250
  53.2398470  59.3856440  22.8051380  54.6630320  59.9017660  22.8117080
  51.5895290  59.9248130  16.8090310  50.9707710  59.5867680  16.1616610
  51.5719740  59.2807890  17.5169500  51.0321850  56.1032670  24.2256120
  50.6193030  56.9286380  24.4796110  50.2997800  55.5177710  24.0332480
  43.1654640  58.8892570  19.0874790  42.7611640  58.1769820  18.5920690
  43.2517760  58.5445810  19.9762830  43.6336340  62.5760130  21.2514000
  43.3364630  61.9705600  20.5721780  44.5836160  62.6137440  21.1403360
  41.8783260  55.6635780  22.8673830  42.4297850  55.7731120  22.0927080
  42.3926770  56.0373380  23.5829060  51.7221950  66.1492000  24.9137100
  51.2452510  66.9564190  24.7209710  51.0383740  65.4970330  25.0663310
  42.7254770  62.3141820  27.9021800  41.8283300  62.5381790  28.1495200
  42.7507640  62.4376760  26.9533200  49.7659990  59.1634940  13.8163060
  50.2053270  58.3257370  13.6700880  50.4788410  59.7964340  13.9027200
  41.5525990  59.1855140  26.4779170  41.4133760  60.0577940  26.8466570
  40.6707350  58.8427950  26.3327110  47.8755370  64.1031010  17.7844300
  48.3151280  64.8455340  17.3699690  47.8142260  64.3457580  18.7083260
  43.3506340  65.1276840  28.6864320  43.3221770  65.5319790  27.8192750
  43.1871310  64.1987200  28.5235920  53.3477130  50.4177750  12.1304100
  53.0349790  50.5104580  13.0303170  54.1089600  50.9958780  12.0801530
  39.8659270  57.7837550  16.5881440  39.7456870  58.5099640  15.9762710
  39.5560160  57.0140460  16.1109350  55.3021160  65.9103940  29.9828490
  55.7780880  66.3886830  30.6617570  55.9228320  65.8421430  29.2573990
  37.5044640  60.9552690  22.3950080  37.5825060  61.0901460  21.4505800
  38.1186320  60.2468580  22.5878200  38.7492270  62.6552880  18.8056260
  38.3420350  62.7967470  17.9509860  39.6405280  62.3713040  18.6027470
  54.7054410  63.1016790  27.1428500  54.8317470  62.8628670  26.2245680
  54.7475790  62.2701330  27.6150580  48.5671150  66.8044790  25.7123310
  49.0815820  66.7152800  26.5145740  47.7240230  67.1504490  26.0051220
  50.5425550  67.0900130  15.1407310  50.3826690  66.8003070  16.0389140
  50.3772260  66.3140260  14.6052540  43.0213930  66.8698660  16.9178930
  42.8456410  65.9534200  16.7046730  42.1669670  67.2285950  17.1576730
  50.2451680  64.5987690  13.7005310  49.5516840  64.5964980  13.0407590
  50.9874540  64.1747010  13.2699480  49.8101610  66.2250400  17.7753800
  50.2658560  65.4439780  18.0892420  50.1494130  66.9357220  18.3194980
  54.5578420  55.1549250  28.1078240  53.9422690  55.6628920  27.5793700
  54.2374840  54.2547580  28.0504180  37.5604160  61.9966860  24.9344540
  37.7235200  61.5272220  24.1163910  38.0256610  61.4890420  25.5993380
  42.3322930  51.1272620  19.9705110  41.8891080  51.9082160  19.6389630
  42.8907920  51.4502510  20.6776050  46.6192740  53.9941140  25.5740430
  46.1572110  54.2024160  26.3860370  46.2170850  53.1800490  25.2711100
  51.6197250  55.2150090  26.7037090  50.7690840  54.9155840  27.0246160
  51.4599040  55.4592100  25.7920910  48.7146960  56.7151840  28.8035880
  49.0400370  55.8815590  28.4638110  49.5027290  57.2380360  28.9514210
  45.4481750  50.7483320  14.8510940  44.8235930  50.7443190  15.5764250
  45.3611870  49.8814280  14.4546910  44.3698830  51.6719950  21.8294710
  44.6671160  52.5782780  21.7486730  44.9184390  51.1838730  21.2154280
  42.1237150  56.2506190  17.6986360  41.8978070  56.0343360  18.6032980
  41.3429680  56.6834650  17.3532330  49.3534910  56.2569560  16.2977010
  48.7543800  56.9805360  16.1140630  49.9014520  56.1946340  15.5153460
  44.5636360  57.1491770  28.3646630  44.4679960  56.2086500  28.2147030
  45.4068340  57.3706840  27.9694700  47.9599780  54.8933100  18.3280290
  48.3529350  55.2105300  17.5148980  48.3216630  54.0144980  18.4424810
  39.6946900  53.5605440  26.5180410  39.3010290  54.4080650  26.7253190
  39.0065300  52.9231810  26.7089050  46.2691950  53.6440410  29.5877150
  45.5790270  53.4512610  30.2223240  47.0124250  53.9275050  30.1201450
  36.9963950  51.4833900  20.5510490  36.7077000  52.0536760  21.2635470
  37.7409710  51.0038350  20.9141720  37.1834180  55.4254020  11.7613210
  37.1008850  56.3684780  11.9028200  36.8317240  55.2828930  10.8825560
  48.5454920  57.4838850  22.4231070  47.8136040  57.9925660  22.7721170
  48.1479260  56.6668830  22.1219850  44.9832310  54.1593050  20.8283560
  44.9868370  53.7183000  19.9788100  45.8783430  54.4810380  20.9355380
  40.8334690  54.0419540  19.7877770  40.4934740  54.5194770  20.5444820
  40.0712010  53.5884660  19.4278870  45.0452460  55.1605130  13.8190320
  45.1665280  55.1191610  14.7676140  44.6600970  56.0229280  13.6637050
  49.0080830  52.9372530  21.8354010  49.0253570  53.3881180  22.6795860
  48.7596410  52.0378170  22.0487450  44.0573960  57.4706270  13.2173620
  43.4890860  57.0224520  12.5909530  44.7662960  57.8299050  12.6838770
  52.4351580  50.3504710  27.6740390  52.7597350  49.6194370  28.1998370
  52.4708090  50.0318350  26.7721380  39.1343140  61.3718290  27.0940350
  38.7497930  60.7311960  27.6923310  39.4455330  62.0754410  27.6635080
  45.2840280  58.2194830  22.5748970  45.6510410  57.7453400  23.3210310
  45.0945340  59.0936400  22.9157310  38.1480770  52.9638520  18.7042440
  37.8627690  52.5994190  19.5421060  38.0859630  52.2318980  18.0905580
  43.0739650  57.2603470  24.8933180  42.7696720  58.1395450  25.1183540
  44.0286110  57.3203260  24.9290620  41.6021440  61.4664460  15.4900030
  40.8283700  60.9262080  15.3298750  42.3316070  60.9471070  15.1517790
  52.3609420  60.4629820  21.2826420  53.0808540  60.9585110  20.8922530
  52.1591240  59.7847710  20.6380290  47.8219360  51.8567780  15.4255810
  47.0083970  51.3580950  15.3501120  47.6281310  52.6966030  15.0092160
  47.7428220  60.5338880  27.1695420  47.6765530  59.6134550  26.9153010
  47.1133360  60.6314320  27.8840060  50.5367750  56.2287430  13.7217970
  51.4247370  56.5404660  13.5469310  50.5072840  55.3559680  13.3298550
  41.6458840  61.1344840  19.1278840  42.1637510  60.3313100  19.0735730
  41.1942860  61.0723980  19.9695670  46.5328340  62.4011120  14.4006140
  46.8744040  63.1453350  13.9049460  45.7041050  62.7142240  14.7630970
  39.1303380  58.1006210  26.0404540  38.7718320  58.7660060  26.6277880
  38.8357940  57.2689760  26.4117160  42.3316500  58.5590450  28.9244090
  42.0316640  58.7047630  28.0271910  43.1027740  57.9995740  28.8317480
  47.6744950  63.3559450  26.9199220  47.6889490  62.4240410  26.7018130
  46.9670050  63.4419210  27.5588990  52.8082020  57.5399270  13.1897830
  52.7245740  57.9713490  12.3394270  53.5276210  57.9997620  13.6224650
  53.8856160  59.9966790  26.2667800  53.1604350  60.5895570  26.0697190
  54.4131620  59.9890330  25.4681170  53.8369270  64.3941530  15.9179960
  53.1945430  63.7397150  16.1923680  53.4499930  64.7996620  15.1420630
  49.4155750  61.7226960  19.7651650  49.7679570  61.1255090  19.1053020
  48.5318080  61.3971190  19.9359900  45.5019030  62.4824650  17.1722060
  46.1890160  63.0293860  17.5529650  44.7151450  63.0265380  17.2071670
  37.6411430  58.0997470  12.6639140  38.5106280  58.3822270  12.9475060
  37.1501750  58.9133340  12.5487950  44.8046240  59.4870680  16.7847420
  45.2609020  60.2975930  17.0107610  44.4534450  59.1693820  17.6165910
  47.1078850  64.9977020  24.0139720  47.7521070  65.2036400  24.6913140
  47.4708290  64.2365420  23.5610570  40.7058020  49.8308330  17.2569940
  40.5772650  49.8226230  18.2054860  39.8820040  50.1691420  16.9060950
  48.3810930  63.0009370  22.7317170  49.0233160  62.3002530  22.8449340
  48.9060280  63.7807810  22.5514060  52.2266650  63.2857990  12.4556310
  52.0004230  62.5688430  13.0480950  51.8362850  63.0370430  11.6178060
  50.1548550  63.8004270  25.9353230  50.4904790  64.3870960  26.6131150
  49.2348890  63.6696980  26.1651020  38.0082680  67.3124850  13.2300770
  38.3680320  67.9114190  12.5758040  37.8675020  67.8584740  14.0035800
  37.7051950  51.5899450  26.7176640  36.9910470  51.7896370  27.3229250
  38.1246990  50.8139020  27.0891440  51.8082900  61.2029930  14.1170470
  51.5204600  61.6642620  14.9048350  52.6035070  60.7427700  14.3854690
  37.9924540  65.5779710  27.7043170  38.1015660  64.6374450  27.5638560
  37.3405100  65.8434460  27.0556900  45.9837130  63.8495600  29.1041290
  45.6634000  63.1304840  29.6486980  45.3095490  64.5250670  29.1777350
  44.0251300  64.6956050  14.0474440  44.0161400  65.4285740  13.4318950
  43.1049660  64.4487630  14.1401400  39.6257940  59.9170940  14.7921200
  39.0185890  60.6569840  14.8016500  40.1007290  60.0070300  13.9659400
  49.1990730  54.0821760  24.4678090  49.5671550  53.2616970  24.7957660
  48.3388930  54.1423650  24.8833740  52.5652760  53.0378700  15.2765650
  51.9365920  53.1424370  14.5623880  52.0704680  53.2575480  16.0659530
  47.0110900  64.7584290  12.7099630  47.1122880  64.5548280  11.7801610
  46.1112640  64.5042570  12.9147410  44.5336790  55.3164650  16.6923530
  43.8252940  55.7850990  17.1337140  44.8181270  54.6586660  17.3268720
  46.1592720  56.7361350  24.6916060  46.6577970  57.2107170  25.3567910
  46.3015670  55.8124870  24.8986090  48.5652220  52.0415310  18.1319320
  48.4420000  52.0601440  17.1828830  49.5136780  52.0894250  18.2517720
  45.6529010  67.2770610  17.4047300  45.9070510  67.2392000  16.4826670
  44.7041490  67.1503940  17.3975550  42.7371810  53.6249730  14.0674240
  43.5862340  54.0619880  14.0014430  42.3703080  53.9369990  14.8946300
  53.3659580  52.9529310  25.5344450  52.8633180  53.6934710  25.8738260
  54.1816240  53.3413310  25.2181240  51.6581590  58.1962490  18.9805810
  50.7171730  58.2112720  19.1553500  51.9725660  57.4098450  19.4266110
  41.6363230  59.8782090  12.5409770  42.4026500  59.7663450  13.1035200
  41.7137920  59.1820060  11.8886540  40.3309990  57.3107160  13.2242660
  40.4113580  56.3634670  13.3360060  41.2229740  57.6414040  13.3303320
  53.6607170  65.3671340  20.6560070  53.7854590  66.1902510  21.1283880
  54.5272730  65.1562070  20.3084220  41.1324700  67.4602550  20.3277200
  41.8687180  66.9118010  20.5985770  41.5165620  68.3258560  20.1883190
  38.0170180  63.5276120  16.2018710  37.0909960  63.7697260  16.1924120
  38.4826610  64.3550380  16.0803460  40.1382980  66.6448620  29.5162780
  40.9395710  66.9660670  29.9298180  39.6234800  66.2844200  30.2382690
  44.2427010  66.6332860  12.1502770  45.0355620  66.9221690  11.6984560
  43.7231360  66.2025030  11.4715250  48.9747610  62.7528490  29.4638190
  48.3685770  62.7760090  28.7233940  48.6701720  62.0211530  30.0005440
  50.4047980  66.4808780  28.0747600  51.3569730  66.3966800  28.0247840
  50.2576200  67.1450490  28.7481390  53.2957180  65.8602990  13.5739510
  53.0098690  65.4468130  12.7593690  53.0976730  66.7890700  13.4540030
  37.8580790  59.1322080  28.4598830  38.3619810  58.5529360  29.0315060
  37.1188210  59.4162310  28.9975200  44.7604410  61.8536270  12.0145120
  44.6555050  61.2388620  12.7406500  44.5928630  61.3302160  11.2308130
  44.9118730  60.5393070  27.9934350  44.1464400  61.1078070  27.9089020
  45.0934690  60.2469280  27.1002580  48.0007140  60.9156300  12.6187110
  47.4517240  61.3625600  13.2629850  48.6226400  60.4105550  13.1424780
  52.0542080  62.2698400  28.5509370  52.7951550  62.6074160  28.0476830
  51.2914760  62.4390460  27.9979140  39.8903870  57.2751670  29.3548900
  39.9309210  56.9765540  30.2634130  40.7449370  57.6759280  29.1956420
  43.6682260  59.8747220  14.5152410  44.0898680  59.7087090  15.3583800
  43.7933100  59.0647450  14.0207550  41.8309680  55.8543770  27.3223390
  41.3006140  55.3634720  26.6946730  42.4997750  56.2827970  26.7881320
  46.1809900  58.8984830  11.7629510  46.7015560  58.1833850  11.3970660
  46.8278300  59.5370700  12.0630020  50.7287740  60.3213230  27.0864580
  51.1428760  60.4758310  27.9355000  49.7938740  60.4468450  27.2490360
  51.2009910  57.6609390  29.0903730  51.7830680  56.9061710  29.0024210
  51.3771680  58.1916830  28.3135210  42.3181980  52.8206140  27.4020680
  42.2238850  52.2026890  26.6771550  41.7379370  53.5472430  27.1750590
  45.0843420  51.3779380  24.4348070  44.6360720  51.4003640  23.5893620
  44.4508620  50.9798400  25.0318370  45.4902970  60.2733710  25.0560510
  45.9091080  61.1166440  24.8836750  44.5711600  60.4105750  24.8267290
  47.8266870  58.0049890  26.4398350  47.9463080  57.4091030  27.1793190
  48.6860870  58.0419580  26.0199650  50.1654770  58.5587080  25.0160860
  49.6389990  59.0829700  24.4126000  50.5086110  59.1914470  25.6470590
  42.5641160  55.9480450  11.4610570  42.3630220  55.0847810  11.8223910
  42.3933210  55.8613810  10.5232170  43.3410390  66.5786720  26.1718240
  42.8031480  67.3032780  25.8526940  43.5944350  66.1017060  25.3815580
  44.5935640  54.5471240  27.6974170  45.1835330  54.2387090  28.3851990
  43.7755880  54.0750990  27.8534070  49.4129070  54.1637050  27.9307190
  48.7244590  53.5018590  27.8657180  50.1335090  53.7175320  28.3755650
  50.0429470  50.7588680  13.9897450  50.3231760  49.9156580  14.3456870
  49.2695200  50.9911790  14.5036200  41.3623960  53.0481070  11.4488450
  41.6649860  53.0548500  10.5407600  42.1018550  52.6978930  11.9456110
  46.1972600  67.8137930  26.4304890  46.1231300  68.7173070  26.7377260
  45.2951440  67.4949830  26.4026960  44.5808890  51.9915690  12.4344650
  44.2330890  51.3139680  11.8547100  44.7821660  51.5305200  13.2488040
  46.7457930  66.9796440  14.0531250  47.6408720  67.3181410  14.0750010
  46.7775560  66.2575850  13.4255530  40.3854090  62.3523490  12.2818250
  40.8228960  62.8953160  12.9375830  40.8701820  61.5270440  12.2914590
  37.5999890  65.1412520  19.7338510  37.9302900  64.2733580  19.5017150
  38.0290890  65.3471040  20.5643470  42.1961810  63.4721530  17.3940480
  41.8957350  63.3486500  18.2944390  42.0899300  62.6130120  16.9856210
  38.0890100  66.0083110  22.4720140  37.6521090  66.1883910  23.3044290
  38.6567780  66.7657730  22.3301860  53.7252280  65.5100110  26.7597450
  53.1254270  65.5692670  26.0161370  53.8546180  64.5705090  26.8894300
  54.9653730  63.2517930  12.0967160  54.1346690  63.3194580  12.5674390
  55.1425560  64.1422050  11.7934020  54.4210190  59.9965410  14.6001360
  55.1829100  60.5662060  14.7061050  54.4364560  59.4292610  15.3709670
  37.9214530  58.5203340  18.8309020  37.2663370  58.2514980  18.1868720
  38.7592480  58.4107820  18.3811000  55.4270160  60.8515510  19.4443290
  55.7978990  60.0682830  19.0379260  56.0672090  61.5404610  19.2660590
  52.4103920  62.2352090  24.8573610  51.5963760  62.6649250  25.1199400
  52.8178120  62.8470500  24.2442660  54.4729360  60.2899780  11.7573880
  54.7478200  61.1978660  11.6293100  54.2840100  60.2262310  12.6935870
  50.8704970  53.3144630  13.0527510  51.2889850  53.1275610  12.2124170
  50.5641030  52.4623680  13.3630440  54.3694700  58.2268770  16.7503310
  53.9938300  57.4596700  16.3184600  53.6397820  58.6091470  17.2378240
  38.9590460  58.9055910  23.3712360  39.3263500  58.8183310  24.2508380
  38.3901280  58.1422460  23.2719220  53.7594320  57.3740290  26.3842830
  53.5280410  57.1453040  25.4840780  54.0198870  58.2939840  26.3387720
  38.5106460  55.8165000  27.2770780  37.6162510  55.7831760  27.6164490
  39.0504010  56.0151790  28.0422030  52.1982390  52.5996720  29.1622530
  53.0752570  52.6080120  29.5456530  52.2103230  51.8627560  28.5514880
  37.1352610  55.7302270  14.7734350  36.2316690  55.9932470  14.5986010
  37.6193230  56.0013440  13.9934310  53.6445660  56.4526260  20.0510550
  54.1683140  55.9588910  19.4200720  54.2305080  56.5876620  20.7958120
  53.8235380  56.5366130  23.5730100  52.8738090  56.5029670  23.6875090
  54.0048390  57.4466240  23.3379870  39.6779820  54.7867810  12.6828730
  40.3871520  54.3651030  12.1976010  38.9619760  54.8543040  12.0512080
  39.3253980  50.8407140  11.7231380  40.0482110  51.3816080  12.0412600
  39.5978500  50.5670560  10.8472920  53.1345630  55.7099610  15.9902960
  53.6304750  55.4770480  16.7751840  52.9361700  54.8711450  15.5740600
  39.0146170  50.0913330  21.6254000  39.6622360  49.5410710  21.1849160
  39.4348010  50.3456480  22.4469810  54.5632790  54.3460560  18.5240640
  54.4532070  54.1916600  19.4622910  55.3240380  53.8181500  18.2816050
  52.9098510  50.2854690  24.9823640  53.5470730  50.8988830  25.3482830
  53.0573400  50.3215350  24.0372870  55.4523060  52.1768480  11.7646780
  56.3772370  52.0449660  11.5565070  55.4298850  52.2561300  12.7183230
  55.5261550  52.9479140  14.3903490  54.7313050  52.8824260  14.9196400
  55.7304830  53.8829780  14.3788840  52.4679970  66.9870690  18.3841880
  53.0639040  66.6655260  17.7076300  52.7258120  66.5142510  19.1755150
  38.7678170  50.2469000  24.3679320  38.4192990  50.7032820  25.1337500
  38.4365870  49.3526130  24.4501750  40.3742540  63.4188600  28.5332510
  40.3312170  63.0481510  29.4146970  40.5053550  64.3566170  28.6734330
  44.0748570  64.9748190  24.1342230  43.8339930  65.2422750  23.2472750
  45.0151210  65.1453920  24.1893090  46.2802990  51.4380880  27.8898740
  46.2191880  52.0302710  28.6394150  47.2203370  51.3306840  27.7449000
  48.9177550  51.0950940  27.5291030  49.5317960  51.4130230  26.8672110
  49.4627110  50.6099530  28.1486890  55.3352730  66.9942570  24.9352870
  54.8411010  67.3911440  24.2180000  54.7266020  66.3691780  25.3290150
  39.4398810  49.7745200  27.6430090  39.9881800  49.5933250  26.8796200
  39.5054120  48.9839310  28.1786400  40.2130570  66.3650850  25.6530290
  39.6190890  66.2335550  26.3920330  40.2054410  65.5288990  25.1872390
  49.6585590  49.6583080  23.8560320  48.7845430  49.9918190  23.6533250
  49.5496340  49.1856260  24.6812190  50.5657570  51.8653950  25.2402040
  50.2370930  51.0505710  24.8603770  51.5139870  51.8223760  25.1167730
  53.0192180  67.6365990  22.2139610  52.5595150  68.3881800  21.8397630
  52.3904640  66.9172460  22.1554410  39.8442800  63.7309230  24.6038330
  39.1176860  63.1114520  24.5364280  39.9051950  64.1249840  23.7336410
  43.4487900  65.9454230  21.3887740  43.9652920  65.3341590  20.8636000
  44.0985280  66.4483010  21.8798750  46.1883400  66.8362720  22.2156720
  46.4761210  66.5817020  21.3389730  46.7006620  66.2840080  22.8062290
  47.4060410  50.5752920  22.7953230  46.6232200  51.0498420  23.0749990
  47.1123340  49.6707750  22.6866410  51.9581480  51.2776020  20.8402320
  52.3989570  51.2221120  19.9923920  51.6889070  52.1934030  20.9112500
  53.8220050  50.9091260  18.8511140  53.7608450  49.9652480  18.7042160
  54.6012080  51.0171350  19.3964600  38.1272800  67.0483620  17.8135090
  37.9594840  66.4154300  18.5116980  37.2607310  67.2543020  17.4629280
  38.7500820  50.8800400  15.3166950  39.5080180  50.9929280  14.7430980
  38.2877990  51.7169600  15.2710380  45.2914630  52.9939670  18.3069260
  44.4789140  52.6196560  17.9665140  45.7956270  52.2384750  18.6090450
  49.7939610  49.6582120  19.5452330  50.3968980  50.2302330  20.0200850
  49.0532600  50.2221560  19.3226230  52.9374210  50.0603680  14.8192610
  53.1324840  50.9587130  15.0860040  52.1504080  49.8290760  15.3125560
  39.7335500  65.7416850  15.2585230  39.2083120  66.1224880  14.5547190
  39.6580080  66.3667620  15.9794940  41.1225970  51.4064450  13.8568920
  41.6518730  50.6194250  13.7276870  41.7554290  52.0855640  14.0904450
  43.3163810  51.1439590  16.9114310  42.6866550  50.4426900  17.0784440
  42.7768950  51.9043720  16.6947470  46.2555760  67.7578820  29.5824920
  47.1823070  67.5223090  29.6260880  46.2406190  68.5850820  29.1010950
  54.4900820  67.3004390  16.5799170  54.6653010  66.6142130  15.9360090
  53.7922390  67.8251440  16.1875840  43.4419370  50.4223570  29.3466800
  43.1603640  50.9257170  28.5827620  43.8239070  49.6245320  28.9808930
  42.3328470  67.6899230  14.1334480  43.0647290  67.4058510  13.5858370
  42.5922140  67.4512510  15.0233860  41.4943260  63.8063960  14.1380810
  40.8652140  64.2749060  14.6866640  41.6091090  62.9613180  14.5727000
  50.0434830  49.8377150  29.9247270  49.9300280  50.1571760  30.8198790
  50.8604570  50.2389660  29.6284550  52.8233320  66.9848680  29.4065960
  53.6158640  66.4897910  29.1991920  53.1166470  67.6638820  30.0141570
  47.0811020  59.6348640   2.1691280  46.3053120  59.1549080   2.4589850
  47.7323950  58.9554290   1.9947440  41.0976850  59.9468450   3.0467040
  40.2661730  59.6917160   3.4463550  41.7057830  60.0179220   3.7824960
  41.0778110  63.9808540   3.2425060  41.3806150  63.0906280   3.0635280
  41.8221700  64.5378760   3.0147310  37.4701810  57.5075990   2.7149130
  38.0417920  56.7398190   2.7152770  37.4703350  57.8064750   1.8055740
  46.5220010  62.3105830   2.1761440  46.4528290  61.3695770   2.0150570
  47.2839870  62.4007240   2.7484010  38.7126680  52.9160350   4.5018060
  38.5329520  52.0186100   4.7820820  38.3106760  53.4632220   5.1765010
  39.3313350  55.4120850   3.1100400  40.0123460  55.6759220   3.7287800
  39.0161400  54.5721720   3.4438410  43.5237920  56.4588210   2.1972990
  44.0316140  56.9569180   2.8378010  44.0551160  55.6823410   2.0212350
  55.6248850  54.6293400   5.9002340  54.9201020  55.0175110   5.3817450
  55.8906770  55.3243690   6.5023270  41.8074020  51.0986770   6.4636410
  41.8092460  51.6159160   5.6582310  40.9778330  50.6216950   6.4406340
  43.0576870  60.7381950   4.6409910  42.7246250  61.3650870   5.2830980
  43.2343550  61.2643830   3.8611580  51.5710780  54.5527030   2.1086250
  50.8666350  54.8411920   2.6889360  51.9322940  55.3627140   1.7485810
  41.4889350  52.8096730   4.4706860  41.8306160  53.6538780   4.1760730
  40.5505160  52.9580470   4.5872200  42.2695970  62.7062750   6.4559090
  42.8869970  63.3813830   6.1743540  41.4089090  63.1150730   6.3646590
  53.1873560  64.1702160   4.3713730  52.5037080  64.8401270   4.3630400
  53.7267850  64.3682810   3.6058590  54.6397700  53.9981820   2.4995460
  53.6922610  54.0320800   2.6310890  54.9647690  54.8120770   2.8844820
  50.7232300  66.0146290   3.0858910  50.7359460  65.6108580   2.2181170
  50.1707520  66.7893580   2.9820340  50.1217740  60.9176130   4.4141520
  50.5386530  60.7036240   3.5794980  50.8457560  61.1748920   4.9850140
  54.0679840  59.3163350   4.5057760  53.2398470  59.3856440   4.0307890
  54.6630320  59.9017660   4.0373590  51.0321850  56.1032670   5.4512630
  50.6193030  56.9286380   5.7052620  50.2997800  55.5177710   5.2588990
  43.6336340  62.5760130   2.4770510  43.3364630  61.9705600   1.7978290
  44.5836160  62.6137440   2.3659870  41.8783260  55.6635780   4.0930340
  42.4297850  55.7731120   3.3183590  42.3926770  56.0373380   4.8085570
  51.7221950  66.1492000   6.1393610  51.2452510  66.9564190   5.9466220
  51.0383740  65.4970330   6.2919820  42.7254770  62.3141820   9.1278310
  41.8283300  62.5381790   9.3751710  42.7507640  62.4376760   8.1789710
  41.5525990  59.1855140   7.7035680  41.4133760  60.0577940   8.0723080
  40.6707350  58.8427950   7.5583620  43.3506340  65.1276840   9.9120830
  43.3221770  65.5319790   9.0449260  43.1871310  64.1987200   9.7492430
  55.3021160  65.9103940  11.2085000  55.7780880  66.3886830  11.8874080
  55.9228320  65.8421430  10.4830500  37.5044640  60.9552690   3.6206590
  37.5825060  61.0901460   2.6762310  38.1186320  60.2468580   3.8134710
  54.7054410  63.1016790   8.3685010  54.8317470  62.8628670   7.4502190
  54.7475790  62.2701330   8.8407090  48.5671150  66.8044790   6.9379820
  49.0815820  66.7152800   7.7402250  47.7240230  67.1504490   7.2307730
  54.5578420  55.1549250   9.3334750  53.9422690  55.6628920   8.8050210
  54.2374840  54.2547580   9.2760690  37.5604160  61.9966860   6.1601050
  37.7235200  61.5272220   5.3420420  38.0256610  61.4890420   6.8249890
  46.6192740  53.9941140   6.7996940  46.1572110  54.2024160   7.6116880
  46.2170850  53.1800490   6.4967610  51.6197250  55.2150090   7.9293600
  50.7690840  54.9155840   8.2502670  51.4599040  55.4592100   7.0177420
  48.7146960  56.7151840  10.0292390  49.0400370  55.8815590   9.6894620
  49.5027290  57.2380360  10.1770720  44.3698830  51.6719950   3.0551220
  44.6671160  52.5782780   2.9743240  44.9184390  51.1838730   2.4410790
  44.5636360  57.1491770   9.5903140  44.4679960  56.2086500   9.4403540
  45.4068340  57.3706840   9.1951210  39.6946900  53.5605440   7.7436920
  39.3010290  54.4080650   7.9509700  39.0065300  52.9231810   7.9345560
  46.2691950  53.6440410  10.8133660  45.5790270  53.4512610  11.4479750
  47.0124250  53.9275050  11.3457960  36.9963950  51.4833900   1.7767000
  36.7077000  52.0536760   2.4891980  37.7409710  51.0038350   2.1398230
  48.5454920  57.4838850   3.6487580  47.8136040  57.9925660   3.9977680
  48.1479260  56.6668830   3.3476360  49.0080830  52.9372530   3.0610520
  49.0253570  53.3881180   3.9052370  48.7596410  52.0378170   3.2743960
  52.4351580  50.3504710   8.8996900  52.7597350  49.6194370   9.4254880
  52.4708090  50.0318350   7.9977890  39.1343140  61.3718290   8.3196860
  38.7497930  60.7311960   8.9179820  39.4455330  62.0754410   8.8891590
  45.2840280  58.2194830   3.8005480  45.6510410  57.7453400   4.5466820
  45.0945340  59.0936400   4.1413820  43.0739650  57.2603470   6.1189690
  42.7696720  58.1395450   6.3440050  44.0286110  57.3203260   6.1547130
  52.3609420  60.4629820   2.5082930  53.0808540  60.9585110   2.1179040
  52.1591240  59.7847710   1.8636800  47.7428220  60.5338880   8.3951930
  47.6765530  59.6134550   8.1409520  47.1133360  60.6314320   9.1096570
  39.1303380  58.1006210   7.2661050  38.7718320  58.7660060   7.8534390
  38.8357940  57.2689760   7.6373670  42.3316500  58.5590450  10.1500600
  42.0316640  58.7047630   9.2528420  43.1027740  57.9995740  10.0573990
  47.6744950  63.3559450   8.1455730  47.6889490  62.4240410   7.9274640
  46.9670050  63.4419210   8.7845500  53.8856160  59.9966790   7.4924310
  53.1604350  60.5895570   7.2953700  54.4131620  59.9890330   6.6937680
  47.1078850  64.9977020   5.2396230  47.7521070  65.2036400   5.9169650
  47.4708290  64.2365420   4.7867080  48.3810930  63.0009370   3.9573680
  49.0233160  62.3002530   4.0705850  48.9060280  63.7807810   3.7770570
  50.1548550  63.8004270   7.1609740  50.4904790  64.3870960   7.8387660
  49.2348890  63.6696980   7.3907530  37.7051950  51.5899450   7.9433150
  36.9910470  51.7896370   8.5485760  38.1246990  50.8139020   8.3147950
  37.9924540  65.5779710   8.9299680  38.1015660  64.6374450   8.7895070
  37.3405100  65.8434460   8.2813410  45.9837130  63.8495600  10.3297800
  45.6634000  63.1304840  10.8743490  45.3095490  64.5250670  10.4033860
  49.1990730  54.0821760   5.6934600  49.5671550  53.2616970   6.0214170
  48.3388930  54.1423650   6.1090250  46.1592720  56.7361350   5.9172570
  46.6577970  57.2107170   6.5824420  46.3015670  55.8124870   6.1242600
  53.3659580  52.9529310   6.7600960  52.8633180  53.6934710   7.0994770
  54.1816240  53.3413310   6.4437750  40.1382980  66.6448620  10.7419290
  40.9395710  66.9660670  11.1554690  39.6234800  66.2844200  11.4639200
  48.9747610  62.7528490  10.6894700  48.3685770  62.7760090   9.9490450
  48.6701720  62.0211530  11.2261950  50.4047980  66.4808780   9.3004110
  51.3569730  66.3966800   9.2504350  50.2576200  67.1450490   9.9737900
  37.8580790  59.1322080   9.6855340  38.3619810  58.5529360  10.2571570
  37.1188210  59.4162310  10.2231710  44.9118730  60.5393070   9.2190860
  44.1464400  61.1078070   9.1345530  45.0934690  60.2469280   8.3259090
  52.0542080  62.2698400   9.7765880  52.7951550  62.6074160   9.2733340
  51.2914760  62.4390460   9.2235650  39.8903870  57.2751670  10.5805410
  39.9309210  56.9765540  11.4890640  40.7449370  57.6759280  10.4212930
  41.8309680  55.8543770   8.5479900  41.3006140  55.3634720   7.9203240
  42.4997750  56.2827970   8.0137830  50.7287740  60.3213230   8.3121090
  51.1428760  60.4758310   9.1611510  49.7938740  60.4468450   8.4746870
  51.2009910  57.6609390  10.3160240  51.7830680  56.9061710  10.2280720
  51.3771680  58.1916830   9.5391720  42.3181980  52.8206140   8.6277190
  42.2238850  52.2026890   7.9028060  41.7379370  53.5472430   8.4007100
  45.0843420  51.3779380   5.6604580  44.6360720  51.4003640   4.8150130
  44.4508620  50.9798400   6.2574880  45.4902970  60.2733710   6.2817020
  45.9091080  61.1166440   6.1093260  44.5711600  60.4105750   6.0523800
  47.8266870  58.0049890   7.6654860  47.9463080  57.4091030   8.4049700
  48.6860870  58.0419580   7.2456160  50.1654770  58.5587080   6.2417370
  49.6389990  59.0829700   5.6382510  50.5086110  59.1914470   6.8727100
  43.3410390  66.5786720   7.3974750  42.8031480  67.3032780   7.0783450
  43.5944350  66.1017060   6.6072090  44.5935640  54.5471240   8.9230680
  45.1835330  54.2387090   9.6108500  43.7755880  54.0750990   9.0790580
  49.4129070  54.1637050   9.1563700  48.7244590  53.5018590   9.0913690
  50.1335090  53.7175320   9.6012160  46.1972600  67.8137930   7.6561400
  46.1231300  68.7173070   7.9633770  45.2951440  67.4949830   7.6283470
  38.0890100  66.0083110   3.6976650  37.6521090  66.1883910   4.5300800
  38.6567780  66.7657730   3.5558370  53.7252280  65.5100110   7.9853960
  53.1254270  65.5692670   7.2417880  53.8546180  64.5705090   8.1150810
  52.4103920  62.2352090   6.0830120  51.5963760  62.6649250   6.3455910
  52.8178120  62.8470500   5.4699170  38.9590460  58.9055910   4.5968870
  39.3263500  58.8183310   5.4764890  38.3901280  58.1422460   4.4975730
  53.7594320  57.3740290   7.6099340  53.5280410  57.1453040   6.7097290
  54.0198870  58.2939840   7.5644230  38.5106460  55.8165000   8.5027290
  37.6162510  55.7831760   8.8421000  39.0504010  56.0151790   9.2678540
  52.1982390  52.5996720  10.3879040  53.0752570  52.6080120  10.7713040
  52.2103230  51.8627560   9.7771390  53.8235380  56.5366130   4.7986610
  52.8738090  56.5029670   4.9131600  54.0048390  57.4466240   4.5636380
  39.0146170  50.0913330   2.8510510  39.6622360  49.5410710   2.4105670
  39.4348010  50.3456480   3.6726320  52.9098510  50.2854690   6.2080150
  53.5470730  50.8988830   6.5739340  53.0573400  50.3215350   5.2629380
  38.7678170  50.2469000   5.5935830  38.4192990  50.7032820   6.3594010
  38.4365870  49.3526130   5.6758260  40.3742540  63.4188600   9.7589020
  40.3312170  63.0481510  10.6403480  40.5053550  64.3566170   9.8990840
  44.0748570  64.9748190   5.3598740  43.8339930  65.2422750   4.4729260
  45.0151210  65.1453920   5.4149600  46.2802990  51.4380880   9.1155250
  46.2191880  52.0302710   9.8650660  47.2203370  51.3306840   8.9705510
  48.9177550  51.0950940   8.7547540  49.5317960  51.4130230   8.0928620
  49.4627110  50.6099530   9.3743400  55.3352730  66.9942570   6.1609380
  54.8411010  67.3911440   5.4436510  54.7266020  66.3691780   6.5546660
  39.4398810  49.7745200   8.8686600  39.9881800  49.5933250   8.1052710
  39.5054120  48.9839310   9.4042910  40.2130570  66.3650850   6.8786800
  39.6190890  66.2335550   7.6176840  40.2054410  65.5288990   6.4128900
  49.6585590  49.6583080   5.0816830  48.7845430  49.9918190   4.8789760
  49.5496340  49.1856260   5.9068700  50.5657570  51.8653950   6.4658550
  50.2370930  51.0505710   6.0860280  51.5139870  51.8223760   6.3424240
  53.0192180  67.6365990   3.4396120  52.5595150  68.3881800   3.0654140
  52.3904640  66.9172460   3.3810920  39.8442800  63.7309230   5.8294840
  39.1176860  63.1114520   5.7620790  39.9051950  64.1249840   4.9592920
  43.4487900  65.9454230   2.6144250  43.9652920  65.3341590   2.0892510
  44.0985280  66.4483010   3.1055260  46.1883400  66.8362720   3.4413230
  46.4761210  66.5817020   2.5646240  46.7006620  66.2840080   4.0318800
  47.4060410  50.5752920   4.0209740  46.6232200  51.0498420   4.3006500
  47.1123340  49.6707750   3.9122920  46.2555760  67.7578820  10.8081430
  47.1823070  67.5223090  10.8517390  46.2406190  68.5850820  10.3267460
  43.4419370  50.4223570  10.5723310  43.1603640  50.9257170   9.8084130
  43.8239070  49.6245320  10.2065440  50.0434830  49.8377150  11.1503780
  49.9300280  50.1571760  12.0455300  50.8604570  50.2389660  10.8541060
  52.8233320  66.9848680  10.6322470  53.6158640  66.4897910  10.4248430
  53.1166470  67.6638820  11.2398080  48.9492980  39.0826130  94.1599460
  48.8687030  38.1680740  93.8891170  48.5357400  39.5793200  93.4539170
  51.1018450  45.2665340  94.8207860  50.6399980  44.4952580  95.1495030
  51.9144000  45.2931410  95.3260310  39.5068800  36.1326850  90.7026880
  38.6185500  36.4742820  90.6006760  39.7909990  35.9327170  89.8107710
  47.3281760  47.5523350  94.4411850  46.7093200  48.0080850  93.8706290
  48.1833540  47.7074810  94.0401550  41.6830190  34.7158350  91.7365260
  41.7896940  35.6162080  92.0434020  40.7722550  34.6676320  91.4459910
  51.3349300  33.8383160  93.2076160  52.1558920  33.3479730  93.2501640
  51.3683380  34.4280820  93.9608000  48.1945110  42.4362590  91.8343760
  47.5762380  42.9012040  91.2706480  48.7068360  43.1290070  92.2513270
  37.5628310  43.1219120  89.2083390  37.1856290  43.6106220  88.4768290
  37.8201380  43.7944400  89.8389920  45.1717240  31.5235510  94.6668900
  45.4792220  30.9682400  93.9504400  44.2417940  31.6579970  94.4841890
  52.0177720  43.9619020  92.0466530  51.9074050  43.0193350  92.1715950
  52.0145970  44.3234660  92.9329290  47.5598000  39.5884340  91.4029020
  46.6327280  39.5221720  91.6317490  47.7122820  40.5264470  91.2884260
  47.5467080  35.8601340  88.3996180  46.6070750  36.0215300  88.4848640
  47.8650340  36.5787020  87.8532170  51.5895290  41.1504640  91.9064270
  50.9707710  40.8124190  91.2590570  51.5719740  40.5064400  92.6143460
  43.1654640  40.1149080  94.1848750  42.7611640  39.4026330  93.6894650
  43.2517760  39.7702320  95.0736790  49.7659990  40.3891450  88.9137020
  50.2053270  39.5513880  88.7674840  50.4788410  41.0220850  89.0001160
  47.8755370  45.3287520  92.8818260  48.3151280  46.0711850  92.4673650
  47.8142260  45.5714090  93.8057220  53.3477130  31.6434260  87.2278060
  53.0349790  31.7361090  88.1277130  54.1089600  32.2215290  87.1775490
  39.8659270  39.0094060  91.6855400  39.7456870  39.7356150  91.0736670
  39.5560160  38.2396970  91.2083310  38.7492270  43.8809390  93.9030220
  38.3420350  44.0223980  93.0483820  39.6405280  43.5969550  93.7001430
  50.5425550  48.3156640  90.2381270  50.3826690  48.0259580  91.1363100
  50.3772260  47.5396770  89.7026500  43.0213930  48.0955170  92.0152890
  42.8456410  47.1790710  91.8020690  42.1669670  48.4542460  92.2550690
  50.2451680  45.8244200  88.7979270  49.5516840  45.8221490  88.1381550
  50.9874540  45.4003520  88.3673440  49.8101610  47.4506910  92.8727760
  50.2658560  46.6696290  93.1866380  50.1494130  48.1613730  93.4168940
  42.3322930  32.3529130  95.0679070  41.8891080  33.1338670  94.7363590
  42.8907920  32.6759020  95.7750010  45.4481750  31.9739830  89.9484900
  44.8235930  31.9699700  90.6738210  45.3611870  31.1070790  89.5520870
  42.1237150  37.4762700  92.7960320  41.8978070  37.2599870  93.7006940
  41.3429680  37.9091160  92.4506290  49.3534910  37.4826070  91.3950970
  48.7543800  38.2061870  91.2114590  49.9014520  37.4202850  90.6127420
  47.9599780  36.1189610  93.4254250  48.3529350  36.4361810  92.6122940
  48.3216630  35.2401490  93.5398770  37.1834180  36.6510530  86.8587170
  37.1008850  37.5941290  87.0002160  36.8317240  36.5085440  85.9799520
  44.9832310  35.3849560  95.9257520  44.9868370  34.9439510  95.0762060
  45.8783430  35.7066890  96.0329340  40.8334690  35.2676050  94.8851730
  40.4934740  35.7451280  95.6418780  40.0712010  34.8141170  94.5252830
  45.0452460  36.3861640  88.9164280  45.1665280  36.3448120  89.8650100
  44.6600970  37.2485790  88.7611010  44.0573960  38.6962780  88.3147580
  43.4890860  38.2481030  87.6883490  44.7662960  39.0555560  87.7812730
  38.1480770  34.1895030  93.8016400  37.8627690  33.8250700  94.6395020
  38.0859630  33.4575490  93.1879540  41.6021440  42.6920970  90.5873990
  40.8283700  42.1518590  90.4272710  42.3316070  42.1727580  90.2491750
  47.8219360  33.0824290  90.5229770  47.0083970  32.5837460  90.4475080
  47.6281310  33.9222540  90.1066120  50.5367750  37.4543940  88.8191930
  51.4247370  37.7661170  88.6443270  50.5072840  36.5816190  88.4272510
  41.6458840  42.3601350  94.2252800  42.1637510  41.5569610  94.1709690
  41.1942860  42.2980490  95.0669630  46.5328340  43.6267630  89.4980100
  46.8744040  44.3709860  89.0023420  45.7041050  43.9398750  89.8604930
  52.8082020  38.7655780  88.2871790  52.7245740  39.1970000  87.4368230
  53.5276210  39.2254130  88.7198610  53.8369270  45.6198040  91.0153920
  53.1945430  44.9653660  91.2897640  53.4499930  46.0253130  90.2394590
  49.4155750  42.9483470  94.8625610  49.7679570  42.3511600  94.2026980
  48.5318080  42.6227700  95.0333860  45.5019030  43.7081160  92.2696020
  46.1890160  44.2550370  92.6503610  44.7151450  44.2521890  92.3045630
  37.6411430  39.3253980  87.7613100  38.5106280  39.6078780  88.0449020
  37.1501750  40.1389850  87.6461910  44.8046240  40.7127190  91.8821380
  45.2609020  41.5232440  92.1081570  44.4534450  40.3950330  92.7139870
  40.7058020  31.0564840  92.3543900  40.5772650  31.0482740  93.3028820
  39.8820040  31.3947930  92.0034910  52.2266650  44.5114500  87.5530270
  52.0004230  43.7944940  88.1454910  51.8362850  44.2626940  86.7152020
  38.0082680  48.5381360  88.3274730  38.3680320  49.1370700  87.6732000
  37.8675020  49.0841250  89.1009760  51.8082900  42.4286440  89.2144430
  51.5204600  42.8899130  90.0022310  52.6035070  41.9684210  89.4828650
  44.0251300  45.9212560  89.1448400  44.0161400  46.6542250  88.5292910
  43.1049660  45.6744140  89.2375360  39.6257940  41.1427450  89.8895160
  39.0185890  41.8826350  89.8990460  40.1007290  41.2326810  89.0633360
  52.5652760  34.2635210  90.3739610  51.9365920  34.3680880  89.6597840
  52.0704680  34.4831990  91.1633490  47.0110900  45.9840800  87.8073590
  47.1122880  45.7804790  86.8775570  46.1112640  45.7299080  88.0121370
  44.5336790  36.5421160  91.7897490  43.8252940  37.0107500  92.2311100
  44.8181270  35.8843170  92.4242680  48.5652220  33.2671820  93.2293280
  48.4420000  33.2857950  92.2802790  49.5136780  33.3150760  93.3491680
  45.6529010  48.5027120  92.5021260  45.9070510  48.4648510  91.5800630
  44.7041490  48.3760450  92.4949510  42.7371810  34.8506240  89.1648200
  43.5862340  35.2876390  89.0988390  42.3703080  35.1626500  89.9920260
  51.6581590  39.4219000  94.0779770  50.7171730  39.4369230  94.2527460
  51.9725660  38.6354960  94.5240070  41.6363230  41.1038600  87.6383730
  42.4026500  40.9919960  88.2009160  41.7137920  40.4076570  86.9860500
  40.3309990  38.5363670  88.3216620  40.4113580  37.5891180  88.4334020
  41.2229740  38.8670550  88.4277280  41.1324700  48.6859060  95.4251160
  41.8687180  48.1374520  95.6959730  41.5165620  49.5515070  95.2857150
  38.0170180  44.7532630  91.2992670  37.0909960  44.9953770  91.2898080
  38.4826610  45.5806890  91.1777420  44.2427010  47.8589370  87.2476730
  45.0355620  48.1478200  86.7958520  43.7231360  47.4281540  86.5689210
  53.2957180  47.0859500  88.6713470  53.0098690  46.6724640  87.8567650
  53.0976730  48.0147210  88.5513990  44.7604410  43.0792780  87.1119080
  44.6555050  42.4645130  87.8380460  44.5928630  42.5558670  86.3282090
  48.0007140  42.1412810  87.7161070  47.4517240  42.5882110  88.3603810
  48.6226400  41.6362060  88.2398740  43.6682260  41.1003730  89.6126370
  44.0898680  40.9343600  90.4557760  43.7933100  40.2903960  89.1181510
  46.1809900  40.1241340  86.8603470  46.7015560  39.4090360  86.4944620
  46.8278300  40.7627210  87.1603980  42.5641160  37.1736960  86.5584530
  42.3630220  36.3104320  86.9197870  42.3933210  37.0870320  85.6206130
  50.0429470  31.9845190  89.0871410  50.3231760  31.1413090  89.4430830
  49.2695200  32.2168300  89.6010160  41.3623960  34.2737580  86.5462410
  41.6649860  34.2805010  85.6381560  42.1018550  33.9235440  87.0430070
  44.5808890  33.2172200  87.5318610  44.2330890  32.5396190  86.9521060
  44.7821660  32.7561710  88.3462000  46.7457930  48.2052950  89.1505210
  47.6408720  48.5437920  89.1723970  46.7775560  47.4832360  88.5229490
  40.3854090  43.5780000  87.3792210  40.8228960  44.1209670  88.0349790
  40.8701820  42.7526950  87.3888550  37.5999890  46.3669030  94.8312470
  37.9302900  45.4990090  94.5991110  38.0290890  46.5727550  95.6617430
  42.1961810  44.6978040  92.4914440  41.8957350  44.5743010  93.3918350
  42.0899300  43.8386630  92.0830170  54.9653730  44.4774440  87.1941120
  54.1346690  44.5451090  87.6648350  55.1425560  45.3678560  86.8907980
  54.4210190  41.2221920  89.6975320  55.1829100  41.7918570  89.8035010
  54.4364560  40.6549120  90.4683630  37.9214530  39.7459850  93.9282980
  37.2663370  39.4771490  93.2842680  38.7592480  39.6364330  93.4784960
  55.4270160  42.0772020  94.5417250  55.7978990  41.2939340  94.1353220
  56.0672090  42.7661120  94.3634550  54.4729360  41.5156290  86.8547840
  54.7478200  42.4235170  86.7267060  54.2840100  41.4518820  87.7909830
  50.8704970  34.5401140  88.1501470  51.2889850  34.3532120  87.3098130
  50.5641030  33.6880190  88.4604400  54.3694700  39.4525280  91.8477270
  53.9938300  38.6853210  91.4158560  53.6397820  39.8347980  92.3352200
  37.1352610  36.9558780  89.8708310  36.2316690  37.2188980  89.6959970
  37.6193230  37.2269950  89.0908270  53.6445660  37.6782770  95.1484510
  54.1683140  37.1845420  94.5174680  54.2305080  37.8133130  95.8932080
  39.6779820  36.0124320  87.7802690  40.3871520  35.5907540  87.2949970
  38.9619760  36.0799550  87.1486040  39.3253980  32.0663650  86.8205340
  40.0482110  32.6072590  87.1386560  39.5978500  31.7927070  85.9446880
  53.1345630  36.9356120  91.0876920  53.6304750  36.7026990  91.8725800
  52.9361700  36.0967960  90.6714560  54.5632790  35.5717070  93.6214600
  54.4532070  35.4173110  94.5596870  55.3240380  35.0438010  93.3790010
  55.4523060  33.4024990  86.8620740  56.3772370  33.2706170  86.6539030
  55.4298850  33.4817810  87.8157190  55.5261550  34.1735650  89.4877450
  54.7313050  34.1080770  90.0170360  55.7304830  35.1086290  89.4762800
  52.4679970  48.2127200  93.4815840  53.0639040  47.8911770  92.8050260
  52.7258120  47.7399020  94.2729110  51.9581480  32.5032530  95.9376280
  52.3989570  32.4477630  95.0897880  51.6889070  33.4190540  96.0086460
  53.8220050  32.1347770  93.9485100  53.7608450  31.1908990  93.8016120
  54.6012080  32.2427860  94.4938560  38.1272800  48.2740130  92.9109050
  37.9594840  47.6410810  93.6090940  37.2607310  48.4799530  92.5603240
  38.7500820  32.1056910  90.4140910  39.5080180  32.2185790  89.8404940
  38.2877990  32.9426110  90.3684340  45.2914630  34.2196180  93.4043220
  44.4789140  33.8453070  93.0639100  45.7956270  33.4641260  93.7064410
  49.7939610  30.8838630  94.6426290  50.3968980  31.4558840  95.1174810
  49.0532600  31.4478070  94.4200190  52.9374210  31.2860190  89.9166570
  53.1324840  32.1843640  90.1834000  52.1504080  31.0547270  90.4099520
  39.7335500  46.9673360  90.3559190  39.2083120  47.3481390  89.6521150
  39.6580080  47.5924130  91.0768900  41.1225970  32.6320960  88.9542880
  41.6518730  31.8450760  88.8250830  41.7554290  33.3112150  89.1878410
  43.3163810  32.3696100  92.0088270  42.6866550  31.6683410  92.1758400
  42.7768950  33.1300230  91.7921430  54.4900820  48.5260900  91.6773130
  54.6653010  47.8398640  91.0334050  53.7922390  49.0507950  91.2849800
  42.3328470  48.9155740  89.2308440  43.0647290  48.6315020  88.6832330
  42.5922140  48.6769020  90.1207820  41.4943260  45.0320470  89.2354770
  40.8652140  45.5005570  89.7840600  41.6091090  44.1869690  89.6700960
  48.9492980  39.0826130  75.3855970  48.8687030  38.1680740  75.1147680
  48.5357400  39.5793200  74.6795680  47.0811020  40.8605150  77.2665240
  46.3053120  40.3805590  77.5563810  47.7323950  40.1810800  77.0921400
  41.0976850  41.1724960  78.1441000  40.2661730  40.9173670  78.5437510
  41.7057830  41.2435730  78.8798920  51.1018450  45.2665340  76.0464370
  50.6399980  44.4952580  76.3751540  51.9144000  45.2931410  76.5516820
  41.0778110  45.2065050  78.3399020  41.3806150  44.3162790  78.1609240
  41.8221700  45.7635270  78.1121270  39.5068800  36.1326850  71.9283390
  38.6185500  36.4742820  71.8263270  39.7909990  35.9327170  71.0364220
  37.4701810  38.7332500  77.8123090  38.0417920  37.9654700  77.8126730
  37.4703350  39.0321260  76.9029700  47.3281760  47.5523350  75.6668360
  46.7093200  48.0080850  75.0962800  48.1833540  47.7074810  75.2658060
  46.5220010  43.5362340  77.2735400  46.4528290  42.5952280  77.1124530
  47.2839870  43.6263750  77.8457970  38.7126680  34.1416860  79.5992020
  38.5329520  33.2442610  79.8794780  38.3106760  34.6888730  80.2738970
  47.5525180  36.3432720  77.5004330  47.9290000  35.4704600  77.3878000
  47.4544690  36.6791420  76.6094770  41.6830190  34.7158350  72.9621770
  41.7896940  35.6162080  73.2690530  40.7722550  34.6676320  72.6716420
  51.3349300  33.8383160  74.4332670  52.1558920  33.3479730  74.4758150
  51.3683380  34.4280820  75.1864510  39.3313350  36.6377360  78.2074360
  40.0123460  36.9015730  78.8261760  39.0161400  35.7978230  78.5412370
  43.5237920  37.6844720  77.2946950  44.0316140  38.1825690  77.9351970
  44.0551160  36.9079920  77.1186310  55.6248850  35.8549910  80.9976300
  54.9201020  36.2431620  80.4791410  55.8906770  36.5500200  81.5997230
  41.8074020  32.3243280  81.5610370  41.8092460  32.8415670  80.7556270
  40.9778330  31.8473460  81.5380300  48.1945110  42.4362590  73.0600270
  47.5762380  42.9012040  72.4962990  48.7068360  43.1290070  73.4769780
  43.0576870  41.9638460  79.7383870  42.7246250  42.5907380  80.3804940
  43.2343550  42.4900340  78.9585540  51.5710780  35.7783540  77.2060210
  50.8666350  36.0668430  77.7863320  51.9322940  36.5883650  76.8459770
  41.4889350  34.0353240  79.5680820  41.8306160  34.8795290  79.2734690
  40.5505160  34.1836980  79.6846160  42.2695970  43.9319260  81.5533050
  42.8869970  44.6070340  81.2717500  41.4089090  44.3407240  81.4620550
  37.5628310  43.1219120  70.4339900  37.1856290  43.6106220  69.7024800
  37.8201380  43.7944400  71.0646430  53.1873560  45.3958670  79.4687690
  52.5037080  46.0657780  79.4604360  53.7267850  45.5939320  78.7032550
  54.6397700  35.2238330  77.5969420  53.6922610  35.2577310  77.7284850
  54.9647690  36.0377280  77.9818780  45.1717240  31.5235510  75.8925410
  45.4792220  30.9682400  75.1760910  44.2417940  31.6579970  75.7098400
  50.7232300  47.2402800  78.1832870  50.7359460  46.8365090  77.3155130
  50.1707520  48.0150090  78.0794300  52.0177720  43.9619020  73.2723040
  51.9074050  43.0193350  73.3972460  52.0145970  44.3234660  74.1585800
  50.1217740  42.1432640  79.5115480  50.5386530  41.9292750  78.6768940
  50.8457560  42.4005430  80.0824100  47.5598000  39.5884340  72.6285530
  46.6327280  39.5221720  72.8574000  47.7122820  40.5264470  72.5140770
  47.5467080  35.8601340  69.6252690  46.6070750  36.0215300  69.7105150
  47.8650340  36.5787020  69.0788680  54.0679840  40.5419860  79.6031720
  53.2398470  40.6112950  79.1281850  54.6630320  41.1274170  79.1347550
  51.5895290  41.1504640  73.1320780  50.9707710  40.8124190  72.4847080
  51.5719740  40.5064400  73.8399970  51.0321850  37.3289180  80.5486590
  50.6193030  38.1542890  80.8026580  50.2997800  36.7434220  80.3562950
  43.1654640  40.1149080  75.4105260  42.7611640  39.4026330  74.9151160
  43.2517760  39.7702320  76.2993300  43.6336340  43.8016640  77.5744470
  43.3364630  43.1962110  76.8952250  44.5836160  43.8393950  77.4633830
  41.8783260  36.8892290  79.1904300  42.4297850  36.9987630  78.4157550
  42.3926770  37.2629890  79.9059530  51.7221950  47.3748510  81.2367570
  51.2452510  48.1820700  81.0440180  51.0383740  46.7226840  81.3893780
  42.7254770  43.5398330  84.2252270  41.8283300  43.7638300  84.4725670
  42.7507640  43.6633270  83.2763670  49.7659990  40.3891450  70.1393530
  50.2053270  39.5513880  69.9931350  50.4788410  41.0220850  70.2257670
  41.5525990  40.4111650  82.8009640  41.4133760  41.2834450  83.1697040
  40.6707350  40.0684460  82.6557580  47.8755370  45.3287520  74.1074770
  48.3151280  46.0711850  73.6930160  47.8142260  45.5714090  75.0313730
  43.3506340  46.3533350  85.0094790  43.3221770  46.7576300  84.1423220
  43.1871310  45.4243710  84.8466390  53.3477130  31.6434260  68.4534570
  53.0349790  31.7361090  69.3533640  54.1089600  32.2215290  68.4032000
  39.8659270  39.0094060  72.9111910  39.7456870  39.7356150  72.2993180
  39.5560160  38.2396970  72.4339820  55.3021160  47.1360450  86.3058960
  55.7780880  47.6143340  86.9848040  55.9228320  47.0677940  85.5804460
  37.5044640  42.1809200  78.7180550  37.5825060  42.3157970  77.7736270
  38.1186320  41.4725090  78.9108670  38.7492270  43.8809390  75.1286730
  38.3420350  44.0223980  74.2740330  39.6405280  43.5969550  74.9257940
  54.7054410  44.3273300  83.4658970  54.8317470  44.0885180  82.5476150
  54.7475790  43.4957840  83.9381050  48.5671150  48.0301300  82.0353780
  49.0815820  47.9409310  82.8376210  47.7240230  48.3761000  82.3281690
  50.5425550  48.3156640  71.4637780  50.3826690  48.0259580  72.3619610
  50.3772260  47.5396770  70.9283010  43.0213930  48.0955170  73.2409400
  42.8456410  47.1790710  73.0277200  42.1669670  48.4542460  73.4807200
  50.2451680  45.8244200  70.0235780  49.5516840  45.8221490  69.3638060
  50.9874540  45.4003520  69.5929950  49.8101610  47.4506910  74.0984270
  50.2658560  46.6696290  74.4122890  50.1494130  48.1613730  74.6425450
  54.5578420  36.3805760  84.4308710  53.9422690  36.8885430  83.9024170
  54.2374840  35.4804090  84.3734650  37.5604160  43.2223370  81.2575010
  37.7235200  42.7528730  80.4394380  38.0256610  42.7146930  81.9223850
  42.3322930  32.3529130  76.2935580  41.8891080  33.1338670  75.9620100
  42.8907920  32.6759020  77.0006520  46.6192740  35.2197650  81.8970900
  46.1572110  35.4280670  82.7090840  46.2170850  34.4057000  81.5941570
  51.6197250  36.4406600  83.0267560  50.7690840  36.1412350  83.3476630
  51.4599040  36.6848610  82.1151380  48.7146960  37.9408350  85.1266350
  49.0400370  37.1072100  84.7868580  49.5027290  38.4636870  85.2744680
  45.4481750  31.9739830  71.1741410  44.8235930  31.9699700  71.8994720
  45.3611870  31.1070790  70.7777380  44.3698830  32.8976460  78.1525180
  44.6671160  33.8039290  78.0717200  44.9184390  32.4095240  77.5384750
  42.1237150  37.4762700  74.0216830  41.8978070  37.2599870  74.9263450
  41.3429680  37.9091160  73.6762800  49.3534910  37.4826070  72.6207480
  48.7543800  38.2061870  72.4371100  49.9014520  37.4202850  71.8383930
  44.5636360  38.3748280  84.6877100  44.4679960  37.4343010  84.5377500
  45.4068340  38.5963350  84.2925170  47.9599780  36.1189610  74.6510760
  48.3529350  36.4361810  73.8379450  48.3216630  35.2401490  74.7655280
  39.6946900  34.7861950  82.8410880  39.3010290  35.6337160  83.0483660
  39.0065300  34.1488320  83.0319520  46.2691950  34.8696920  85.9107620
  45.5790270  34.6769120  86.5453710  47.0124250  35.1531560  86.4431920
  36.9963950  32.7090410  76.8740960  36.7077000  33.2793270  77.5865940
  37.7409710  32.2294860  77.2372190  37.1834180  36.6510530  68.0843680
  37.1008850  37.5941290  68.2258670  36.8317240  36.5085440  67.2056030
  48.5454920  38.7095360  78.7461540  47.8136040  39.2182170  79.0951640
  48.1479260  37.8925340  78.4450320  44.9832310  35.3849560  77.1514030
  44.9868370  34.9439510  76.3018570  45.8783430  35.7066890  77.2585850
  40.8334690  35.2676050  76.1108240  40.4934740  35.7451280  76.8675290
  40.0712010  34.8141170  75.7509340  45.0452460  36.3861640  70.1420790
  45.1665280  36.3448120  71.0906610  44.6600970  37.2485790  69.9867520
  49.0080830  34.1629040  78.1584480  49.0253570  34.6137690  79.0026330
  48.7596410  33.2634680  78.3717920  44.0573960  38.6962780  69.5404090
  43.4890860  38.2481030  68.9140000  44.7662960  39.0555560  69.0069240
  52.4351580  31.5761220  83.9970860  52.7597350  30.8450880  84.5228840
  52.4708090  31.2574860  83.0951850  39.1343140  42.5974800  83.4170820
  38.7497930  41.9568470  84.0153780  39.4455330  43.3010920  83.9865550
  45.2840280  39.4451340  78.8979440  45.6510410  38.9709910  79.6440780
  45.0945340  40.3192910  79.2387780  38.1480770  34.1895030  75.0272910
  37.8627690  33.8250700  75.8651530  38.0859630  33.4575490  74.4136050
  43.0739650  38.4859980  81.2163650  42.7696720  39.3651960  81.4414010
  44.0286110  38.5459770  81.2521090  41.6021440  42.6920970  71.8130500
  40.8283700  42.1518590  71.6529220  42.3316070  42.1727580  71.4748260
  52.3609420  41.6886330  77.6056890  53.0808540  42.1841620  77.2153000
  52.1591240  41.0104220  76.9610760  47.8219360  33.0824290  71.7486280
  47.0083970  32.5837460  71.6731590  47.6281310  33.9222540  71.3322630
  47.7428220  41.7595390  83.4925890  47.6765530  40.8391060  83.2383480
  47.1133360  41.8570830  84.2070530  50.5367750  37.4543940  70.0448440
  51.4247370  37.7661170  69.8699780  50.5072840  36.5816190  69.6529020
  41.6458840  42.3601350  75.4509310  42.1637510  41.5569610  75.3966200
  41.1942860  42.2980490  76.2926140  46.5328340  43.6267630  70.7236610
  46.8744040  44.3709860  70.2279930  45.7041050  43.9398750  71.0861440
  39.1303380  39.3262720  82.3635010  38.7718320  39.9916570  82.9508350
  38.8357940  38.4946270  82.7347630  42.3316500  39.7846960  85.2474560
  42.0316640  39.9304140  84.3502380  43.1027740  39.2252250  85.1547950
  47.6744950  44.5815960  83.2429690  47.6889490  43.6496920  83.0248600
  46.9670050  44.6675720  83.8819460  52.8082020  38.7655780  69.5128300
  52.7245740  39.1970000  68.6624740  53.5276210  39.2254130  69.9455120
  53.8856160  41.2223300  82.5898270  53.1604350  41.8152080  82.3927660
  54.4131620  41.2146840  81.7911640  53.8369270  45.6198040  72.2410430
  53.1945430  44.9653660  72.5154150  53.4499930  46.0253130  71.4651100
  49.4155750  42.9483470  76.0882120  49.7679570  42.3511600  75.4283490
  48.5318080  42.6227700  76.2590370  45.5019030  43.7081160  73.4952530
  46.1890160  44.2550370  73.8760120  44.7151450  44.2521890  73.5302140
  37.6411430  39.3253980  68.9869610  38.5106280  39.6078780  69.2705530
  37.1501750  40.1389850  68.8718420  44.8046240  40.7127190  73.1077890
  45.2609020  41.5232440  73.3338080  44.4534450  40.3950330  73.9396380
  47.1078850  46.2233530  80.3370190  47.7521070  46.4292910  81.0143610
  47.4708290  45.4621930  79.8841040  40.7058020  31.0564840  73.5800410
  40.5772650  31.0482740  74.5285330  39.8820040  31.3947930  73.2291420
  48.3810930  44.2265880  79.0547640  49.0233160  43.5259040  79.1679810
  48.9060280  45.0064320  78.8744530  52.2266650  44.5114500  68.7786780
  52.0004230  43.7944940  69.3711420  51.8362850  44.2626940  67.9408530
  50.1548550  45.0260780  82.2583700  50.4904790  45.6127470  82.9361620
  49.2348890  44.8953490  82.4881490  38.0082680  48.5381360  69.5531240
  38.3680320  49.1370700  68.8988510  37.8675020  49.0841250  70.3266270
  37.7051950  32.8155960  83.0407110  36.9910470  33.0152880  83.6459720
  38.1246990  32.0395530  83.4121910  51.8082900  42.4286440  70.4400940
  51.5204600  42.8899130  71.2278820  52.6035070  41.9684210  70.7085160
  37.9924540  46.8036220  84.0273640  38.1015660  45.8630960  83.8869030
  37.3405100  47.0690970  83.3787370  45.9837130  45.0752110  85.4271760
  45.6634000  44.3561350  85.9717450  45.3095490  45.7507180  85.5007820
  44.0251300  45.9212560  70.3704910  44.0161400  46.6542250  69.7549420
  43.1049660  45.6744140  70.4631870  39.6257940  41.1427450  71.1151670
  39.0185890  41.8826350  71.1246970  40.1007290  41.2326810  70.2889870
  49.1990730  35.3078270  80.7908560  49.5671550  34.4873480  81.1188130
  48.3388930  35.3680160  81.2064210  52.5652760  34.2635210  71.5996120
  51.9365920  34.3680880  70.8854350  52.0704680  34.4831990  72.3890000
  47.0110900  45.9840800  69.0330100  47.1122880  45.7804790  68.1032080
  46.1112640  45.7299080  69.2377880  44.5336790  36.5421160  73.0154000
  43.8252940  37.0107500  73.4567610  44.8181270  35.8843170  73.6499190
  46.1592720  37.9617860  81.0146530  46.6577970  38.4363680  81.6798380
  46.3015670  37.0381380  81.2216560  48.5652220  33.2671820  74.4549790
  48.4420000  33.2857950  73.5059300  49.5136780  33.3150760  74.5748190
  45.6529010  48.5027120  73.7277770  45.9070510  48.4648510  72.8057140
  44.7041490  48.3760450  73.7206020  42.7371810  34.8506240  70.3904710
  43.5862340  35.2876390  70.3244900  42.3703080  35.1626500  71.2176770
  53.3659580  34.1785820  81.8574920  52.8633180  34.9191220  82.1968730
  54.1816240  34.5669820  81.5411710  51.6581590  39.4219000  75.3036280
  50.7171730  39.4369230  75.4783970  51.9725660  38.6354960  75.7496580
  41.6363230  41.1038600  68.8640240  42.4026500  40.9919960  69.4265670
  41.7137920  40.4076570  68.2117010  40.3309990  38.5363670  69.5473130
  40.4113580  37.5891180  69.6590530  41.2229740  38.8670550  69.6533790
  53.6607170  46.5927850  76.9790540  53.7854590  47.4159020  77.4514350
  54.5272730  46.3818580  76.6314690  41.1324700  48.6859060  76.6507670
  41.8687180  48.1374520  76.9216240  41.5165620  49.5515070  76.5113660
  38.0170180  44.7532630  72.5249180  37.0909960  44.9953770  72.5154590
  38.4826610  45.5806890  72.4033930  40.1382980  47.8705130  85.8393250
  40.9395710  48.1917180  86.2528650  39.6234800  47.5100710  86.5613160
  44.2427010  47.8589370  68.4733240  45.0355620  48.1478200  68.0215030
  43.7231360  47.4281540  67.7945720  48.9747610  43.9785000  85.7868660
  48.3685770  44.0016600  85.0464410  48.6701720  43.2468040  86.3235910
  50.4047980  47.7065290  84.3978070  51.3569730  47.6223310  84.3478310
  50.2576200  48.3707000  85.0711860  53.2957180  47.0859500  69.8969980
  53.0098690  46.6724640  69.0824160  53.0976730  48.0147210  69.7770500
  37.8580790  40.3578590  84.7829300  38.3619810  39.7785870  85.3545530
  37.1188210  40.6418820  85.3205670  44.7604410  43.0792780  68.3375590
  44.6555050  42.4645130  69.0636970  44.5928630  42.5558670  67.5538600
  44.9118730  41.7649580  84.3164820  44.1464400  42.3334580  84.2319490
  45.0934690  41.4725790  83.4233050  48.0007140  42.1412810  68.9417580
  47.4517240  42.5882110  69.5860320  48.6226400  41.6362060  69.4655250
  52.0542080  43.4954910  84.8739840  52.7951550  43.8330670  84.3707300
  51.2914760  43.6646970  84.3209610  39.8903870  38.5008180  85.6779370
  39.9309210  38.2022050  86.5864600  40.7449370  38.9015790  85.5186890
  43.6682260  41.1003730  70.8382880  44.0898680  40.9343600  71.6814270
  43.7933100  40.2903960  70.3438020  41.8309680  37.0800280  83.6453860
  41.3006140  36.5891230  83.0177200  42.4997750  37.5084480  83.1111790
  46.1809900  40.1241340  68.0859980  46.7015560  39.4090360  67.7201130
  46.8278300  40.7627210  68.3860490  50.7287740  41.5469740  83.4095050
  51.1428760  41.7014820  84.2585470  49.7938740  41.6724960  83.5720830
  51.2009910  38.8865900  85.4134200  51.7830680  38.1318220  85.3254680
  51.3771680  39.4173340  84.6365680  42.3181980  34.0462650  83.7251150
  42.2238850  33.4283400  83.0002020  41.7379370  34.7728940  83.4981060
  45.0843420  32.6035890  80.7578540  44.6360720  32.6260150  79.9124090
  44.4508620  32.2054910  81.3548840  45.4902970  41.4990220  81.3790980
  45.9091080  42.3422950  81.2067220  44.5711600  41.6362260  81.1497760
  47.8266870  39.2306400  82.7628820  47.9463080  38.6347540  83.5023660
  48.6860870  39.2676090  82.3430120  50.1654770  39.7843590  81.3391330
  49.6389990  40.3086210  80.7356470  50.5086110  40.4170980  81.9701060
  42.5641160  37.1736960  67.7841040  42.3630220  36.3104320  68.1454380
  42.3933210  37.0870320  66.8462640  43.3410390  47.8043230  82.4948710
  42.8031480  48.5289290  82.1757410  43.5944350  47.3273570  81.7046050
  44.5935640  35.7727750  84.0204640  45.1835330  35.4643600  84.7082460
  43.7755880  35.3007500  84.1764540  49.4129070  35.3893560  84.2537660
  48.7244590  34.7275100  84.1887650  50.1335090  34.9431830  84.6986120
  50.0429470  31.9845190  70.3127920  50.3231760  31.1413090  70.6687340
  49.2695200  32.2168300  70.8266670  41.3623960  34.2737580  67.7718920
  41.6649860  34.2805010  66.8638070  42.1018550  33.9235440  68.2686580
  46.1972600  49.0394440  82.7535360  46.1231300  49.9429580  83.0607730
  45.2951440  48.7206340  82.7257430  44.5808890  33.2172200  68.7575120
  44.2330890  32.5396190  68.1777570  44.7821660  32.7561710  69.5718510
  46.7457930  48.2052950  70.3761720  47.6408720  48.5437920  70.3980480
  46.7775560  47.4832360  69.7486000  40.3854090  43.5780000  68.6048720
  40.8228960  44.1209670  69.2606300  40.8701820  42.7526950  68.6145060
  37.5999890  46.3669030  76.0568980  37.9302900  45.4990090  75.8247620
  38.0290890  46.5727550  76.8873940  42.1961810  44.6978040  73.7170950
  41.8957350  44.5743010  74.6174860  42.0899300  43.8386630  73.3086680
  38.0890100  47.2339620  78.7950610  37.6521090  47.4140420  79.6274760
  38.6567780  47.9914240  78.6532330  53.7252280  46.7356620  83.0827920
  53.1254270  46.7949180  82.3391840  53.8546180  45.7961600  83.2124770
  54.9653730  44.4774440  68.4197630  54.1346690  44.5451090  68.8904860
  55.1425560  45.3678560  68.1164490  54.4210190  41.2221920  70.9231830
  55.1829100  41.7918570  71.0291520  54.4364560  40.6549120  71.6940140
  37.9214530  39.7459850  75.1539490  37.2663370  39.4771490  74.5099190
  38.7592480  39.6364330  74.7041470  55.4270160  42.0772020  75.7673760
  55.7978990  41.2939340  75.3609730  56.0672090  42.7661120  75.5891060
  52.4103920  43.4608600  81.1804080  51.5963760  43.8905760  81.4429870
  52.8178120  44.0727010  80.5673130  54.4729360  41.5156290  68.0804350
  54.7478200  42.4235170  67.9523570  54.2840100  41.4518820  69.0166340
  50.8704970  34.5401140  69.3757980  51.2889850  34.3532120  68.5354640
  50.5641030  33.6880190  69.6860910  54.3694700  39.4525280  73.0733780
  53.9938300  38.6853210  72.6415070  53.6397820  39.8347980  73.5608710
  38.9590460  40.1312420  79.6942830  39.3263500  40.0439820  80.5738850
  38.3901280  39.3678970  79.5949690  53.7594320  38.5996800  82.7073300
  53.5280410  38.3709550  81.8071250  54.0198870  39.5196350  82.6618190
  38.5106460  37.0421510  83.6001250  37.6162510  37.0088270  83.9394960
  39.0504010  37.2408300  84.3652500  52.1982390  33.8253230  85.4853000
  53.0752570  33.8336630  85.8687000  52.2103230  33.0884070  84.8745350
  37.1352610  36.9558780  71.0964820  36.2316690  37.2188980  70.9216480
  37.6193230  37.2269950  70.3164780  53.6445660  37.6782770  76.3741020
  54.1683140  37.1845420  75.7431190  54.2305080  37.8133130  77.1188590
  53.8235380  37.7622640  79.8960570  52.8738090  37.7286180  80.0105560
  54.0048390  38.6722750  79.6610340  39.6779820  36.0124320  69.0059200
  40.3871520  35.5907540  68.5206480  38.9619760  36.0799550  68.3742550
  39.3253980  32.0663650  68.0461850  40.0482110  32.6072590  68.3643070
  39.5978500  31.7927070  67.1703390  53.1345630  36.9356120  72.3133430
  53.6304750  36.7026990  73.0982310  52.9361700  36.0967960  71.8971070
  39.0146170  31.3169840  77.9484470  39.6622360  30.7667220  77.5079630
  39.4348010  31.5712990  78.7700280  54.5632790  35.5717070  74.8471110
  54.4532070  35.4173110  75.7853380  55.3240380  35.0438010  74.6046520
  52.9098510  31.5111200  81.3054110  53.5470730  32.1245340  81.6713300
  53.0573400  31.5471860  80.3603340  55.4523060  33.4024990  68.0877250
  56.3772370  33.2706170  67.8795540  55.4298850  33.4817810  69.0413700
  55.5261550  34.1735650  70.7133960  54.7313050  34.1080770  71.2426870
  55.7304830  35.1086290  70.7019310  52.4679970  48.2127200  74.7072350
  53.0639040  47.8911770  74.0306770  52.7258120  47.7399020  75.4985620
  38.7678170  31.4725510  80.6909790  38.4192990  31.9289330  81.4567970
  38.4365870  30.5782640  80.7732220  40.3742540  44.6445110  84.8562980
  40.3312170  44.2738020  85.7377440  40.5053550  45.5822680  84.9964800
  44.0748570  46.2004700  80.4572700  43.8339930  46.4679260  79.5703220
  45.0151210  46.3710430  80.5123560  46.2802990  32.6637390  84.2129210
  46.2191880  33.2559220  84.9624620  47.2203370  32.5563350  84.0679470
  48.9177550  32.3207450  83.8521500  49.5317960  32.6386740  83.1902580
  49.4627110  31.8356040  84.4717360  55.3352730  48.2199080  81.2583340
  54.8411010  48.6167950  80.5410470  54.7266020  47.5948290  81.6520620
  39.4398810  31.0001710  83.9660560  39.9881800  30.8189760  83.2026670
  39.5054120  30.2095820  84.5016870  40.2130570  47.5907360  81.9760760
  39.6190890  47.4592060  82.7150800  40.2054410  46.7545500  81.5102860
  49.6585590  30.8839590  80.1790790  48.7845430  31.2174700  79.9763720
  49.5496340  30.4112770  81.0042660  50.5657570  33.0910460  81.5632510
  50.2370930  32.2762220  81.1834240  51.5139870  33.0480270  81.4398200
  53.0192180  48.8622500  78.5370080  52.5595150  49.6138310  78.1628100
  52.3904640  48.1428970  78.4784880  39.8442800  44.9565740  80.9268800
  39.1176860  44.3371030  80.8594750  39.9051950  45.3506350  80.0566880
  43.4487900  47.1710740  77.7118210  43.9652920  46.5598100  77.1866470
  44.0985280  47.6739520  78.2029220  46.1883400  48.0619230  78.5387190
  46.4761210  47.8073530  77.6620200  46.7006620  47.5096590  79.1292760
  47.4060410  31.8009430  79.1183700  46.6232200  32.2754930  79.3980460
  47.1123340  30.8964260  79.0096880  51.9581480  32.5032530  77.1632790
  52.3989570  32.4477630  76.3154390  51.6889070  33.4190540  77.2342970
  53.8220050  32.1347770  75.1741610  53.7608450  31.1908990  75.0272630
  54.6012080  32.2427860  75.7195070  38.1272800  48.2740130  74.1365560
  37.9594840  47.6410810  74.8347450  37.2607310  48.4799530  73.7859750
  38.7500820  32.1056910  71.6397420  39.5080180  32.2185790  71.0661450
  38.2877990  32.9426110  71.5940850  45.2914630  34.2196180  74.6299730
  44.4789140  33.8453070  74.2895610  45.7956270  33.4641260  74.9320920
  49.7939610  30.8838630  75.8682800  50.3968980  31.4558840  76.3431320
  49.0532600  31.4478070  75.6456700  52.9374210  31.2860190  71.1423080
  53.1324840  32.1843640  71.4090510  52.1504080  31.0547270  71.6356030
  39.7335500  46.9673360  71.5815700  39.2083120  47.3481390  70.8777660
  39.6580080  47.5924130  72.3025410  41.1225970  32.6320960  70.1799390
  41.6518730  31.8450760  70.0507340  41.7554290  33.3112150  70.4134920
  43.3163810  32.3696100  73.2344780  42.6866550  31.6683410  73.4014910
  42.7768950  33.1300230  73.0177940  46.2555760  48.9835330  85.9055390
  47.1823070  48.7479600  85.9491350  46.2406190  49.8107330  85.4241420
  54.4900820  48.5260900  72.9029640  54.6653010  47.8398640  72.2590560
  53.7922390  49.0507950  72.5106310  43.4419370  31.6480080  85.6697270
  43.1603640  32.1513680  84.9058090  43.8239070  30.8501830  85.3039400
  42.3328470  48.9155740  70.4564950  43.0647290  48.6315020  69.9088840
  42.5922140  48.6769020  71.3464330  41.4943260  45.0320470  70.4611280
  40.8652140  45.5005570  71.0097110  41.6091090  44.1869690  70.8957470
  50.0434830  31.0633660  86.2477740  49.9300280  31.3828270  87.1429260
  50.8604570  31.4646170  85.9515020  52.8233320  48.2105190  85.7296430
  53.6158640  47.7154420  85.5222390  53.1166470  48.8895330  86.3372040
  48.9492980  39.0826130  56.6112480  48.8687030  38.1680740  56.3404190
  48.5357400  39.5793200  55.9052190  47.0811020  40.8605150  58.4921750
  46.3053120  40.3805590  58.7820320  47.7323950  40.1810800  58.3177910
  41.0976850  41.1724960  59.3697510  40.2661730  40.9173670  59.7694020
  41.7057830  41.2435730  60.1055430  51.1018450  45.2665340  57.2720880
  50.6399980  44.4952580  57.6008050  51.9144000  45.2931410  57.7773330
  41.0778110  45.2065050  59.5655530  41.3806150  44.3162790  59.3865750
  41.8221700  45.7635270  59.3377780  39.5068800  36.1326850  53.1539900
  38.6185500  36.4742820  53.0519780  39.7909990  35.9327170  52.2620730
  37.4701810  38.7332500  59.0379600  38.0417920  37.9654700  59.0383240
  37.4703350  39.0321260  58.1286210  47.3281760  47.5523350  56.8924870
  46.7093200  48.0080850  56.3219310  48.1833540  47.7074810  56.4914570
  46.5220010  43.5362340  58.4991910  46.4528290  42.5952280  58.3381040
  47.2839870  43.6263750  59.0714480  38.7126680  34.1416860  60.8248530
  38.5329520  33.2442610  61.1051290  38.3106760  34.6888730  61.4995480
  47.5525180  36.3432720  58.7260840  47.9290000  35.4704600  58.6134510
  47.4544690  36.6791420  57.8351280  41.6830190  34.7158350  54.1878280
  41.7896940  35.6162080  54.4947040  40.7722550  34.6676320  53.8972930
  51.3349300  33.8383160  55.6589180  52.1558920  33.3479730  55.7014660
  51.3683380  34.4280820  56.4121020  39.3313350  36.6377360  59.4330870
  40.0123460  36.9015730  60.0518270  39.0161400  35.7978230  59.7668880
  43.5237920  37.6844720  58.5203460  44.0316140  38.1825690  59.1608480
  44.0551160  36.9079920  58.3442820  55.6248850  35.8549910  62.2232810
  54.9201020  36.2431620  61.7047920  55.8906770  36.5500200  62.8253740
  41.8074020  32.3243280  62.7866880  41.8092460  32.8415670  61.9812780
  40.9778330  31.8473460  62.7636810  48.1945110  42.4362590  54.2856780
  47.5762380  42.9012040  53.7219500  48.7068360  43.1290070  54.7026290
  43.0576870  41.9638460  60.9640380  42.7246250  42.5907380  61.6061450
  43.2343550  42.4900340  60.1842050  51.5710780  35.7783540  58.4316720
  50.8666350  36.0668430  59.0119830  51.9322940  36.5883650  58.0716280
  41.4889350  34.0353240  60.7937330  41.8306160  34.8795290  60.4991200
  40.5505160  34.1836980  60.9102670  42.2695970  43.9319260  62.7789560
  42.8869970  44.6070340  62.4974010  41.4089090  44.3407240  62.6877060
  37.5628310  43.1219120  51.6596410  37.1856290  43.6106220  50.9281310
  37.8201380  43.7944400  52.2902940  53.1873560  45.3958670  60.6944200
  52.5037080  46.0657780  60.6860870  53.7267850  45.5939320  59.9289060
  54.6397700  35.2238330  58.8225930  53.6922610  35.2577310  58.9541360
  54.9647690  36.0377280  59.2075290  45.1717240  31.5235510  57.1181920
  45.4792220  30.9682400  56.4017420  44.2417940  31.6579970  56.9354910
  50.7232300  47.2402800  59.4089380  50.7359460  46.8365090  58.5411640
  50.1707520  48.0150090  59.3050810  52.0177720  43.9619020  54.4979550
  51.9074050  43.0193350  54.6228970  52.0145970  44.3234660  55.3842310
  50.1217740  42.1432640  60.7371990  50.5386530  41.9292750  59.9025450
  50.8457560  42.4005430  61.3080610  47.5598000  39.5884340  53.8542040
  46.6327280  39.5221720  54.0830510  47.7122820  40.5264470  53.7397280
  47.5467080  35.8601340  50.8509200  46.6070750  36.0215300  50.9361660
  47.8650340  36.5787020  50.3045190  54.0679840  40.5419860  60.8288230
  53.2398470  40.6112950  60.3538360  54.6630320  41.1274170  60.3604060
  51.5895290  41.1504640  54.3577290  50.9707710  40.8124190  53.7103590
  51.5719740  40.5064400  55.0656480  51.0321850  37.3289180  61.7743100
  50.6193030  38.1542890  62.0283090  50.2997800  36.7434220  61.5819460
  43.1654640  40.1149080  56.6361770  42.7611640  39.4026330  56.1407670
  43.2517760  39.7702320  57.5249810  43.6336340  43.8016640  58.8000980
  43.3364630  43.1962110  58.1208760  44.5836160  43.8393950  58.6890340
  41.8783260  36.8892290  60.4160810  42.4297850  36.9987630  59.6414060
  42.3926770  37.2629890  61.1316040  51.7221950  47.3748510  62.4624080
  51.2452510  48.1820700  62.2696690  51.0383740  46.7226840  62.6150290
  42.7254770  43.5398330  65.4508780  41.8283300  43.7638300  65.6982180
  42.7507640  43.6633270  64.5020180  49.7659990  40.3891450  51.3650040
  50.2053270  39.5513880  51.2187860  50.4788410  41.0220850  51.4514180
  41.5525990  40.4111650  64.0266150  41.4133760  41.2834450  64.3953550
  40.6707350  40.0684460  63.8814090  47.8755370  45.3287520  55.3331280
  48.3151280  46.0711850  54.9186670  47.8142260  45.5714090  56.2570240
  43.3506340  46.3533350  66.2351300  43.3221770  46.7576300  65.3679730
  43.1871310  45.4243710  66.0722900  53.3477130  31.6434260  49.6791080
  53.0349790  31.7361090  50.5790150  54.1089600  32.2215290  49.6288510
  39.8659270  39.0094060  54.1368420  39.7456870  39.7356150  53.5249690
  39.5560160  38.2396970  53.6596330  55.3021160  47.1360450  67.5315470
  55.7780880  47.6143340  68.2104550  55.9228320  47.0677940  66.8060970
  37.5044640  42.1809200  59.9437060  37.5825060  42.3157970  58.9992780
  38.1186320  41.4725090  60.1365180  38.7492270  43.8809390  56.3543240
  38.3420350  44.0223980  55.4996840  39.6405280  43.5969550  56.1514450
  54.7054410  44.3273300  64.6915480  54.8317470  44.0885180  63.7732660
  54.7475790  43.4957840  65.1637560  48.5671150  48.0301300  63.2610290
  49.0815820  47.9409310  64.0632720  47.7240230  48.3761000  63.5538200
  50.5425550  48.3156640  52.6894290  50.3826690  48.0259580  53.5876120
  50.3772260  47.5396770  52.1539520  43.0213930  48.0955170  54.4665910
  42.8456410  47.1790710  54.2533710  42.1669670  48.4542460  54.7063710
  50.2451680  45.8244200  51.2492290  49.5516840  45.8221490  50.5894570
  50.9874540  45.4003520  50.8186460  49.8101610  47.4506910  55.3240780
  50.2658560  46.6696290  55.6379400  50.1494130  48.1613730  55.8681960
  54.5578420  36.3805760  65.6565220  53.9422690  36.8885430  65.1280680
  54.2374840  35.4804090  65.5991160  37.5604160  43.2223370  62.4831520
  37.7235200  42.7528730  61.6650890  38.0256610  42.7146930  63.1480360
  42.3322930  32.3529130  57.5192090  41.8891080  33.1338670  57.1876610
  42.8907920  32.6759020  58.2263030  46.6192740  35.2197650  63.1227410
  46.1572110  35.4280670  63.9347350  46.2170850  34.4057000  62.8198080
  51.6197250  36.4406600  64.2524070  50.7690840  36.1412350  64.5733140
  51.4599040  36.6848610  63.3407890  48.7146960  37.9408350  66.3522860
  49.0400370  37.1072100  66.0125090  49.5027290  38.4636870  66.5001190
  45.4481750  31.9739830  52.3997920  44.8235930  31.9699700  53.1251230
  45.3611870  31.1070790  52.0033890  44.3698830  32.8976460  59.3781690
  44.6671160  33.8039290  59.2973710  44.9184390  32.4095240  58.7641260
  42.1237150  37.4762700  55.2473340  41.8978070  37.2599870  56.1519960
  41.3429680  37.9091160  54.9019310  49.3534910  37.4826070  53.8463990
  48.7543800  38.2061870  53.6627610  49.9014520  37.4202850  53.0640440
  44.5636360  38.3748280  65.9133610  44.4679960  37.4343010  65.7634010
  45.4068340  38.5963350  65.5181680  47.9599780  36.1189610  55.8767270
  48.3529350  36.4361810  55.0635960  48.3216630  35.2401490  55.9911790
  39.6946900  34.7861950  64.0667390  39.3010290  35.6337160  64.2740170
  39.0065300  34.1488320  64.2576030  46.2691950  34.8696920  67.1364130
  45.5790270  34.6769120  67.7710220  47.0124250  35.1531560  67.6688430
  36.9963950  32.7090410  58.0997470  36.7077000  33.2793270  58.8122450
  37.7409710  32.2294860  58.4628700  37.1834180  36.6510530  49.3100190
  37.1008850  37.5941290  49.4515180  36.8317240  36.5085440  48.4312540
  48.5454920  38.7095360  59.9718050  47.8136040  39.2182170  60.3208150
  48.1479260  37.8925340  59.6706830  44.9832310  35.3849560  58.3770540
  44.9868370  34.9439510  57.5275080  45.8783430  35.7066890  58.4842360
  40.8334690  35.2676050  57.3364750  40.4934740  35.7451280  58.0931800
  40.0712010  34.8141170  56.9765850  45.0452460  36.3861640  51.3677300
  45.1665280  36.3448120  52.3163120  44.6600970  37.2485790  51.2124030
  49.0080830  34.1629040  59.3840990  49.0253570  34.6137690  60.2282840
  48.7596410  33.2634680  59.5974430  44.0573960  38.6962780  50.7660600
  43.4890860  38.2481030  50.1396510  44.7662960  39.0555560  50.2325750
  52.4351580  31.5761220  65.2227370  52.7597350  30.8450880  65.7485350
  52.4708090  31.2574860  64.3208360  39.1343140  42.5974800  64.6427330
  38.7497930  41.9568470  65.2410290  39.4455330  43.3010920  65.2122060
  45.2840280  39.4451340  60.1235950  45.6510410  38.9709910  60.8697290
  45.0945340  40.3192910  60.4644290  38.1480770  34.1895030  56.2529420
  37.8627690  33.8250700  57.0908040  38.0859630  33.4575490  55.6392560
  43.0739650  38.4859980  62.4420160  42.7696720  39.3651960  62.6670520
  44.0286110  38.5459770  62.4777600  41.6021440  42.6920970  53.0387010
  40.8283700  42.1518590  52.8785730  42.3316070  42.1727580  52.7004770
  52.3609420  41.6886330  58.8313400  53.0808540  42.1841620  58.4409510
  52.1591240  41.0104220  58.1867270  47.8219360  33.0824290  52.9742790
  47.0083970  32.5837460  52.8988100  47.6281310  33.9222540  52.5579140
  47.7428220  41.7595390  64.7182400  47.6765530  40.8391060  64.4639990
  47.1133360  41.8570830  65.4327040  50.5367750  37.4543940  51.2704950
  51.4247370  37.7661170  51.0956290  50.5072840  36.5816190  50.8785530
  41.6458840  42.3601350  56.6765820  42.1637510  41.5569610  56.6222710
  41.1942860  42.2980490  57.5182650  46.5328340  43.6267630  51.9493120
  46.8744040  44.3709860  51.4536440  45.7041050  43.9398750  52.3117950
  39.1303380  39.3262720  63.5891520  38.7718320  39.9916570  64.1764860
  38.8357940  38.4946270  63.9604140  42.3316500  39.7846960  66.4731070
  42.0316640  39.9304140  65.5758890  43.1027740  39.2252250  66.3804460
  47.6744950  44.5815960  64.4686200  47.6889490  43.6496920  64.2505110
  46.9670050  44.6675720  65.1075970  52.8082020  38.7655780  50.7384810
  52.7245740  39.1970000  49.8881250  53.5276210  39.2254130  51.1711630
  53.8856160  41.2223300  63.8154780  53.1604350  41.8152080  63.6184170
  54.4131620  41.2146840  63.0168150  53.8369270  45.6198040  53.4666940
  53.1945430  44.9653660  53.7410660  53.4499930  46.0253130  52.6907610
  49.4155750  42.9483470  57.3138630  49.7679570  42.3511600  56.6540000
  48.5318080  42.6227700  57.4846880  45.5019030  43.7081160  54.7209040
  46.1890160  44.2550370  55.1016630  44.7151450  44.2521890  54.7558650
  37.6411430  39.3253980  50.2126120  38.5106280  39.6078780  50.4962040
  37.1501750  40.1389850  50.0974930  44.8046240  40.7127190  54.3334400
  45.2609020  41.5232440  54.5594590  44.4534450  40.3950330  55.1652890
  47.1078850  46.2233530  61.5626700  47.7521070  46.4292910  62.2400120
  47.4708290  45.4621930  61.1097550  40.7058020  31.0564840  54.8056920
  40.5772650  31.0482740  55.7541840  39.8820040  31.3947930  54.4547930
  48.3810930  44.2265880  60.2804150  49.0233160  43.5259040  60.3936320
  48.9060280  45.0064320  60.1001040  52.2266650  44.5114500  50.0043290
  52.0004230  43.7944940  50.5967930  51.8362850  44.2626940  49.1665040
  50.1548550  45.0260780  63.4840210  50.4904790  45.6127470  64.1618130
  49.2348890  44.8953490  63.7138000  38.0082680  48.5381360  50.7787750
  38.3680320  49.1370700  50.1245020  37.8675020  49.0841250  51.5522780
  37.7051950  32.8155960  64.2663620  36.9910470  33.0152880  64.8716230
  38.1246990  32.0395530  64.6378420  51.8082900  42.4286440  51.6657450
  51.5204600  42.8899130  52.4535330  52.6035070  41.9684210  51.9341670
  37.9924540  46.8036220  65.2530150  38.1015660  45.8630960  65.1125540
  37.3405100  47.0690970  64.6043880  45.9837130  45.0752110  66.6528270
  45.6634000  44.3561350  67.1973960  45.3095490  45.7507180  66.7264330
  44.0251300  45.9212560  51.5961420  44.0161400  46.6542250  50.9805930
  43.1049660  45.6744140  51.6888380  39.6257940  41.1427450  52.3408180
  39.0185890  41.8826350  52.3503480  40.1007290  41.2326810  51.5146380
  49.1990730  35.3078270  62.0165070  49.5671550  34.4873480  62.3444640
  48.3388930  35.3680160  62.4320720  52.5652760  34.2635210  52.8252630
  51.9365920  34.3680880  52.1110860  52.0704680  34.4831990  53.6146510
  47.0110900  45.9840800  50.2586610  47.1122880  45.7804790  49.3288590
  46.1112640  45.7299080  50.4634390  44.5336790  36.5421160  54.2410510
  43.8252940  37.0107500  54.6824120  44.8181270  35.8843170  54.8755700
  46.1592720  37.9617860  62.2403040  46.6577970  38.4363680  62.9054890
  46.3015670  37.0381380  62.4473070  48.5652220  33.2671820  55.6806300
  48.4420000  33.2857950  54.7315810  49.5136780  33.3150760  55.8004700
  45.6529010  48.5027120  54.9534280  45.9070510  48.4648510  54.0313650
  44.7041490  48.3760450  54.9462530  42.7371810  34.8506240  51.6161220
  43.5862340  35.2876390  51.5501410  42.3703080  35.1626500  52.4433280
  53.3659580  34.1785820  63.0831430  52.8633180  34.9191220  63.4225240
  54.1816240  34.5669820  62.7668220  51.6581590  39.4219000  56.5292790
  50.7171730  39.4369230  56.7040480  51.9725660  38.6354960  56.9753090
  41.6363230  41.1038600  50.0896750  42.4026500  40.9919960  50.6522180
  41.7137920  40.4076570  49.4373520  40.3309990  38.5363670  50.7729640
  40.4113580  37.5891180  50.8847040  41.2229740  38.8670550  50.8790300
  53.6607170  46.5927850  58.2047050  53.7854590  47.4159020  58.6770860
  54.5272730  46.3818580  57.8571200  41.1324700  48.6859060  57.8764180
  41.8687180  48.1374520  58.1472750  41.5165620  49.5515070  57.7370170
  38.0170180  44.7532630  53.7505690  37.0909960  44.9953770  53.7411100
  38.4826610  45.5806890  53.6290440  40.1382980  47.8705130  67.0649760
  40.9395710  48.1917180  67.4785160  39.6234800  47.5100710  67.7869670
  44.2427010  47.8589370  49.6989750  45.0355620  48.1478200  49.2471540
  43.7231360  47.4281540  49.0202230  48.9747610  43.9785000  67.0125170
  48.3685770  44.0016600  66.2720920  48.6701720  43.2468040  67.5492420
  50.4047980  47.7065290  65.6234580  51.3569730  47.6223310  65.5734820
  50.2576200  48.3707000  66.2968370  53.2957180  47.0859500  51.1226490
  53.0098690  46.6724640  50.3080670  53.0976730  48.0147210  51.0027010
  37.8580790  40.3578590  66.0085810  38.3619810  39.7785870  66.5802040
  37.1188210  40.6418820  66.5462180  44.7604410  43.0792780  49.5632100
  44.6555050  42.4645130  50.2893480  44.5928630  42.5558670  48.7795110
  44.9118730  41.7649580  65.5421330  44.1464400  42.3334580  65.4576000
  45.0934690  41.4725790  64.6489560  48.0007140  42.1412810  50.1674090
  47.4517240  42.5882110  50.8116830  48.6226400  41.6362060  50.6911760
  52.0542080  43.4954910  66.0996350  52.7951550  43.8330670  65.5963810
  51.2914760  43.6646970  65.5466120  39.8903870  38.5008180  66.9035880
  39.9309210  38.2022050  67.8121110  40.7449370  38.9015790  66.7443400
  43.6682260  41.1003730  52.0639390  44.0898680  40.9343600  52.9070780
  43.7933100  40.2903960  51.5694530  41.8309680  37.0800280  64.8710370
  41.3006140  36.5891230  64.2433710  42.4997750  37.5084480  64.3368300
  46.1809900  40.1241340  49.3116490  46.7015560  39.4090360  48.9457640
  46.8278300  40.7627210  49.6117000  50.7287740  41.5469740  64.6351560
  51.1428760  41.7014820  65.4841980  49.7938740  41.6724960  64.7977340
  51.2009910  38.8865900  66.6390710  51.7830680  38.1318220  66.5511190
  51.3771680  39.4173340  65.8622190  42.3181980  34.0462650  64.9507660
  42.2238850  33.4283400  64.2258530  41.7379370  34.7728940  64.7237570
  45.0843420  32.6035890  61.9835050  44.6360720  32.6260150  61.1380600
  44.4508620  32.2054910  62.5805350  45.4902970  41.4990220  62.6047490
  45.9091080  42.3422950  62.4323730  44.5711600  41.6362260  62.3754270
  47.8266870  39.2306400  63.9885330  47.9463080  38.6347540  64.7280170
  48.6860870  39.2676090  63.5686630  50.1654770  39.7843590  62.5647840
  49.6389990  40.3086210  61.9612980  50.5086110  40.4170980  63.1957570
  42.5641160  37.1736960  49.0097550  42.3630220  36.3104320  49.3710890
  42.3933210  37.0870320  48.0719150  43.3410390  47.8043230  63.7205220
  42.8031480  48.5289290  63.4013920  43.5944350  47.3273570  62.9302560
  44.5935640  35.7727750  65.2461150  45.1835330  35.4643600  65.9338970
  43.7755880  35.3007500  65.4021050  49.4129070  35.3893560  65.4794170
  48.7244590  34.7275100  65.4144160  50.1335090  34.9431830  65.9242630
  50.0429470  31.9845190  51.5384430  50.3231760  31.1413090  51.8943850
  49.2695200  32.2168300  52.0523180  41.3623960  34.2737580  48.9975430
  41.6649860  34.2805010  48.0894580  42.1018550  33.9235440  49.4943090
  46.1972600  49.0394440  63.9791870  46.1231300  49.9429580  64.2864240
  45.2951440  48.7206340  63.9513940  44.5808890  33.2172200  49.9831630
  44.2330890  32.5396190  49.4034080  44.7821660  32.7561710  50.7975020
  46.7457930  48.2052950  51.6018230  47.6408720  48.5437920  51.6236990
  46.7775560  47.4832360  50.9742510  40.3854090  43.5780000  49.8305230
  40.8228960  44.1209670  50.4862810  40.8701820  42.7526950  49.8401570
  37.5999890  46.3669030  57.2825490  37.9302900  45.4990090  57.0504130
  38.0290890  46.5727550  58.1130450  42.1961810  44.6978040  54.9427460
  41.8957350  44.5743010  55.8431370  42.0899300  43.8386630  54.5343190
  38.0890100  47.2339620  60.0207120  37.6521090  47.4140420  60.8531270
  38.6567780  47.9914240  59.8788840  53.7252280  46.7356620  64.3084430
  53.1254270  46.7949180  63.5648350  53.8546180  45.7961600  64.4381280
  54.9653730  44.4774440  49.6454140  54.1346690  44.5451090  50.1161370
  55.1425560  45.3678560  49.3421000  54.4210190  41.2221920  52.1488340
  55.1829100  41.7918570  52.2548030  54.4364560  40.6549120  52.9196650
  37.9214530  39.7459850  56.3796000  37.2663370  39.4771490  55.7355700
  38.7592480  39.6364330  55.9297980  55.4270160  42.0772020  56.9930270
  55.7978990  41.2939340  56.5866240  56.0672090  42.7661120  56.8147570
  52.4103920  43.4608600  62.4060590  51.5963760  43.8905760  62.6686380
  52.8178120  44.0727010  61.7929640  54.4729360  41.5156290  49.3060860
  54.7478200  42.4235170  49.1780080  54.2840100  41.4518820  50.2422850
  50.8704970  34.5401140  50.6014490  51.2889850  34.3532120  49.7611150
  50.5641030  33.6880190  50.9117420  54.3694700  39.4525280  54.2990290
  53.9938300  38.6853210  53.8671580  53.6397820  39.8347980  54.7865220
  38.9590460  40.1312420  60.9199340  39.3263500  40.0439820  61.7995360
  38.3901280  39.3678970  60.8206200  53.7594320  38.5996800  63.9329810
  53.5280410  38.3709550  63.0327760  54.0198870  39.5196350  63.8874700
  38.5106460  37.0421510  64.8257760  37.6162510  37.0088270  65.1651470
  39.0504010  37.2408300  65.5909010  52.1982390  33.8253230  66.7109510
  53.0752570  33.8336630  67.0943510  52.2103230  33.0884070  66.1001860
  37.1352610  36.9558780  52.3221330  36.2316690  37.2188980  52.1472990
  37.6193230  37.2269950  51.5421290  53.6445660  37.6782770  57.5997530
  54.1683140  37.1845420  56.9687700  54.2305080  37.8133130  58.3445100
  53.8235380  37.7622640  61.1217080  52.8738090  37.7286180  61.2362070
  54.0048390  38.6722750  60.8866850  39.6779820  36.0124320  50.2315710
  40.3871520  35.5907540  49.7462990  38.9619760  36.0799550  49.5999060
  39.3253980  32.0663650  49.2718360  40.0482110  32.6072590  49.5899580
  39.5978500  31.7927070  48.3959900  53.1345630  36.9356120  53.5389940
  53.6304750  36.7026990  54.3238820  52.9361700  36.0967960  53.1227580
  39.0146170  31.3169840  59.1740980  39.6622360  30.7667220  58.7336140
  39.4348010  31.5712990  59.9956790  54.5632790  35.5717070  56.0727620
  54.4532070  35.4173110  57.0109890  55.3240380  35.0438010  55.8303030
  52.9098510  31.5111200  62.5310620  53.5470730  32.1245340  62.8969810
  53.0573400  31.5471860  61.5859850  55.4523060  33.4024990  49.3133760
  56.3772370  33.2706170  49.1052050  55.4298850  33.4817810  50.2670210
  55.5261550  34.1735650  51.9390470  54.7313050  34.1080770  52.4683380
  55.7304830  35.1086290  51.9275820  52.4679970  48.2127200  55.9328860
  53.0639040  47.8911770  55.2563280  52.7258120  47.7399020  56.7242130
  38.7678170  31.4725510  61.9166300  38.4192990  31.9289330  62.6824480
  38.4365870  30.5782640  61.9988730  40.3742540  44.6445110  66.0819490
  40.3312170  44.2738020  66.9633950  40.5053550  45.5822680  66.2221310
  44.0748570  46.2004700  61.6829210  43.8339930  46.4679260  60.7959730
  45.0151210  46.3710430  61.7380070  46.2802990  32.6637390  65.4385720
  46.2191880  33.2559220  66.1881130  47.2203370  32.5563350  65.2935980
  48.9177550  32.3207450  65.0778010  49.5317960  32.6386740  64.4159090
  49.4627110  31.8356040  65.6973870  55.3352730  48.2199080  62.4839850
  54.8411010  48.6167950  61.7666980  54.7266020  47.5948290  62.8777130
  39.4398810  31.0001710  65.1917070  39.9881800  30.8189760  64.4283180
  39.5054120  30.2095820  65.7273380  40.2130570  47.5907360  63.2017270
  39.6190890  47.4592060  63.9407310  40.2054410  46.7545500  62.7359370
  49.6585590  30.8839590  61.4047300  48.7845430  31.2174700  61.2020230
  49.5496340  30.4112770  62.2299170  50.5657570  33.0910460  62.7889020
  50.2370930  32.2762220  62.4090750  51.5139870  33.0480270  62.6654710
  53.0192180  48.8622500  59.7626590  52.5595150  49.6138310  59.3884610
  52.3904640  48.1428970  59.7041390  39.8442800  44.9565740  62.1525310
  39.1176860  44.3371030  62.0851260  39.9051950  45.3506350  61.2823390
  43.4487900  47.1710740  58.9374720  43.9652920  46.5598100  58.4122980
  44.0985280  47.6739520  59.4285730  46.1883400  48.0619230  59.7643700
  46.4761210  47.8073530  58.8876710  46.7006620  47.5096590  60.3549270
  47.4060410  31.8009430  60.3440210  46.6232200  32.2754930  60.6236970
  47.1123340  30.8964260  60.2353390  51.9581480  32.5032530  58.3889300
  52.3989570  32.4477630  57.5410900  51.6889070  33.4190540  58.4599480
  53.8220050  32.1347770  56.3998120  53.7608450  31.1908990  56.2529140
  54.6012080  32.2427860  56.9451580  38.1272800  48.2740130  55.3622070
  37.9594840  47.6410810  56.0603960  37.2607310  48.4799530  55.0116260
  38.7500820  32.1056910  52.8653930  39.5080180  32.2185790  52.2917960
  38.2877990  32.9426110  52.8197360  45.2914630  34.2196180  55.8556240
  44.4789140  33.8453070  55.5152120  45.7956270  33.4641260  56.1577430
  49.7939610  30.8838630  57.0939310  50.3968980  31.4558840  57.5687830
  49.0532600  31.4478070  56.8713210  52.9374210  31.2860190  52.3679590
  53.1324840  32.1843640  52.6347020  52.1504080  31.0547270  52.8612540
  39.7335500  46.9673360  52.8072210  39.2083120  47.3481390  52.1034170
  39.6580080  47.5924130  53.5281920  41.1225970  32.6320960  51.4055900
  41.6518730  31.8450760  51.2763850  41.7554290  33.3112150  51.6391430
  43.3163810  32.3696100  54.4601290  42.6866550  31.6683410  54.6271420
  42.7768950  33.1300230  54.2434450  46.2555760  48.9835330  67.1311900
  47.1823070  48.7479600  67.1747860  46.2406190  49.8107330  66.6497930
  54.4900820  48.5260900  54.1286150  54.6653010  47.8398640  53.4847070
  53.7922390  49.0507950  53.7362820  43.4419370  31.6480080  66.8953780
  43.1603640  32.1513680  66.1314600  43.8239070  30.8501830  66.5295910
  42.3328470  48.9155740  51.6821460  43.0647290  48.6315020  51.1345350
  42.5922140  48.6769020  52.5720840  41.4943260  45.0320470  51.6867790
  40.8652140  45.5005570  52.2353620  41.6091090  44.1869690  52.1213980
  50.0434830  31.0633660  67.4734250  49.9300280  31.3828270  68.3685770
  50.8604570  31.4646170  67.1771530  52.8233320  48.2105190  66.9552940
  53.6158640  47.7154420  66.7478900  53.1166470  48.8895330  67.5628550
  48.9492980  39.0826130  37.8368990  48.8687030  38.1680740  37.5660700
  48.5357400  39.5793200  37.1308700  47.0811020  40.8605150  39.7178260
  46.3053120  40.3805590  40.0076830  47.7323950  40.1810800  39.5434420
  41.0976850  41.1724960  40.5954020  40.2661730  40.9173670  40.9950530
  41.7057830  41.2435730  41.3311940  51.1018450  45.2665340  38.4977390
  50.6399980  44.4952580  38.8264560  51.9144000  45.2931410  39.0029840
  41.0778110  45.2065050  40.7912040  41.3806150  44.3162790  40.6122260
  41.8221700  45.7635270  40.5634290  47.3281760  47.5523350  38.1181380
  46.7093200  48.0080850  37.5475820  48.1833540  47.7074810  37.7171080
  46.5220010  43.5362340  39.7248420  46.4528290  42.5952280  39.5637550
  47.2839870  43.6263750  40.2970990  38.7126680  34.1416860  42.0505040
  38.5329520  33.2442610  42.3307800  38.3106760  34.6888730  42.7251990
  47.5525180  36.3432720  39.9517350  47.9290000  35.4704600  39.8391020
  47.4544690  36.6791420  39.0607790  51.3349300  33.8383160  36.8845690
  52.1558920  33.3479730  36.9271170  51.3683380  34.4280820  37.6377530
  39.3313350  36.6377360  40.6587380  40.0123460  36.9015730  41.2774780
  39.0161400  35.7978230  40.9925390  43.5237920  37.6844720  39.7459970
  44.0316140  38.1825690  40.3864990  44.0551160  36.9079920  39.5699330
  55.6248850  35.8549910  43.4489320  54.9201020  36.2431620  42.9304430
  55.8906770  36.5500200  44.0510250  41.8074020  32.3243280  44.0123390
  41.8092460  32.8415670  43.2069290  40.9778330  31.8473460  43.9893320
  48.1945110  42.4362590  35.5113290  47.5762380  42.9012040  34.9476010
  48.7068360  43.1290070  35.9282800  43.0576870  41.9638460  42.1896890
  42.7246250  42.5907380  42.8317960  43.2343550  42.4900340  41.4098560
  51.5710780  35.7783540  39.6573230  50.8666350  36.0668430  40.2376340
  51.9322940  36.5883650  39.2972790  41.4889350  34.0353240  42.0193840
  41.8306160  34.8795290  41.7247710  40.5505160  34.1836980  42.1359180
  42.2695970  43.9319260  44.0046070  42.8869970  44.6070340  43.7230520
  41.4089090  44.3407240  43.9133570  37.5628310  43.1219120  32.8852920
  37.1856290  43.6106220  32.1537820  37.8201380  43.7944400  33.5159450
  53.1873560  45.3958670  41.9200710  52.5037080  46.0657780  41.9117380
  53.7267850  45.5939320  41.1545570  54.6397700  35.2238330  40.0482440
  53.6922610  35.2577310  40.1797870  54.9647690  36.0377280  40.4331800
  45.1717240  31.5235510  38.3438430  45.4792220  30.9682400  37.6273930
  44.2417940  31.6579970  38.1611420  50.7232300  47.2402800  40.6345890
  50.7359460  46.8365090  39.7668150  50.1707520  48.0150090  40.5307320
  52.0177720  43.9619020  35.7236060  51.9074050  43.0193350  35.8485480
  52.0145970  44.3234660  36.6098820  50.1217740  42.1432640  41.9628500
  50.5386530  41.9292750  41.1281960  50.8457560  42.4005430  42.5337120
  47.5598000  39.5884340  35.0798550  46.6327280  39.5221720  35.3087020
  47.7122820  40.5264470  34.9653790  47.5467080  35.8601340  32.0765710
  46.6070750  36.0215300  32.1618170  47.8650340  36.5787020  31.5301700
  54.0679840  40.5419860  42.0544740  53.2398470  40.6112950  41.5794870
  54.6630320  41.1274170  41.5860570  51.5895290  41.1504640  35.5833800
  50.9707710  40.8124190  34.9360100  51.5719740  40.5064400  36.2912990
  51.0321850  37.3289180  42.9999610  50.6193030  38.1542890  43.2539600
  50.2997800  36.7434220  42.8075970  43.1654640  40.1149080  37.8618280
  42.7611640  39.4026330  37.3664180  43.2517760  39.7702320  38.7506320
  43.6336340  43.8016640  40.0257490  43.3364630  43.1962110  39.3465270
  44.5836160  43.8393950  39.9146850  41.8783260  36.8892290  41.6417320
  42.4297850  36.9987630  40.8670570  42.3926770  37.2629890  42.3572550
  51.7221950  47.3748510  43.6880590  51.2452510  48.1820700  43.4953200
  51.0383740  46.7226840  43.8406800  42.7254770  43.5398330  46.6765290
  41.8283300  43.7638300  46.9238690  42.7507640  43.6633270  45.7276690
  49.7659990  40.3891450  32.5906550  50.2053270  39.5513880  32.4444370
  50.4788410  41.0220850  32.6770690  41.5525990  40.4111650  45.2522660
  41.4133760  41.2834450  45.6210060  40.6707350  40.0684460  45.1070600
  47.8755370  45.3287520  36.5587790  48.3151280  46.0711850  36.1443180
  47.8142260  45.5714090  37.4826750  43.3506340  46.3533350  47.4607810
  43.3221770  46.7576300  46.5936240  43.1871310  45.4243710  47.2979410
  53.3477130  31.6434260  30.9047590  53.0349790  31.7361090  31.8046660
  54.1089600  32.2215290  30.8545020  55.3021160  47.1360450  48.7571980
  55.7780880  47.6143340  49.4361060  55.9228320  47.0677940  48.0317480
  37.5044640  42.1809200  41.1693570  37.5825060  42.3157970  40.2249290
  38.1186320  41.4725090  41.3621690  38.7492270  43.8809390  37.5799750
  38.3420350  44.0223980  36.7253350  39.6405280  43.5969550  37.3770960
  54.7054410  44.3273300  45.9171990  54.8317470  44.0885180  44.9989170
  54.7475790  43.4957840  46.3894070  48.5671150  48.0301300  44.4866800
  49.0815820  47.9409310  45.2889230  47.7240230  48.3761000  44.7794710
  50.5425550  48.3156640  33.9150800  50.3826690  48.0259580  34.8132630
  50.3772260  47.5396770  33.3796030  43.0213930  48.0955170  35.6922420
  42.8456410  47.1790710  35.4790220  42.1669670  48.4542460  35.9320220
  50.2451680  45.8244200  32.4748800  49.5516840  45.8221490  31.8151080
  50.9874540  45.4003520  32.0442970  49.8101610  47.4506910  36.5497290
  50.2658560  46.6696290  36.8635910  50.1494130  48.1613730  37.0938470
  54.5578420  36.3805760  46.8821730  53.9422690  36.8885430  46.3537190
  54.2374840  35.4804090  46.8247670  37.5604160  43.2223370  43.7088030
  37.7235200  42.7528730  42.8907400  38.0256610  42.7146930  44.3736870
  42.3322930  32.3529130  38.7448600  41.8891080  33.1338670  38.4133120
  42.8907920  32.6759020  39.4519540  46.6192740  35.2197650  44.3483920
  46.1572110  35.4280670  45.1603860  46.2170850  34.4057000  44.0454590
  51.6197250  36.4406600  45.4780580  50.7690840  36.1412350  45.7989650
  51.4599040  36.6848610  44.5664400  48.7146960  37.9408350  47.5779370
  49.0400370  37.1072100  47.2381600  49.5027290  38.4636870  47.7257700
  45.4481750  31.9739830  33.6254430  44.8235930  31.9699700  34.3507740
  45.3611870  31.1070790  33.2290400  44.3698830  32.8976460  40.6038200
  44.6671160  33.8039290  40.5230220  44.9184390  32.4095240  39.9897770
  49.3534910  37.4826070  35.0720500  48.7543800  38.2061870  34.8884120
  49.9014520  37.4202850  34.2896950  44.5636360  38.3748280  47.1390120
  44.4679960  37.4343010  46.9890520  45.4068340  38.5963350  46.7438190
  47.9599780  36.1189610  37.1023780  48.3529350  36.4361810  36.2892470
  48.3216630  35.2401490  37.2168300  39.6946900  34.7861950  45.2923900
  39.3010290  35.6337160  45.4996680  39.0065300  34.1488320  45.4832540
  46.2691950  34.8696920  48.3620640  45.5790270  34.6769120  48.9966730
  47.0124250  35.1531560  48.8944940  48.5454920  38.7095360  41.1974560
  47.8136040  39.2182170  41.5464660  48.1479260  37.8925340  40.8963340
  44.9832310  35.3849560  39.6027050  44.9868370  34.9439510  38.7531590
  45.8783430  35.7066890  39.7098870  45.0452460  36.3861640  32.5933810
  45.1665280  36.3448120  33.5419630  44.6600970  37.2485790  32.4380540
  49.0080830  34.1629040  40.6097500  49.0253570  34.6137690  41.4539350
  48.7596410  33.2634680  40.8230940  44.0573960  38.6962780  31.9917110
  43.4890860  38.2481030  31.3653020  44.7662960  39.0555560  31.4582260
  52.4351580  31.5761220  46.4483880  52.7597350  30.8450880  46.9741860
  52.4708090  31.2574860  45.5464870  39.1343140  42.5974800  45.8683840
  38.7497930  41.9568470  46.4666800  39.4455330  43.3010920  46.4378570
  45.2840280  39.4451340  41.3492460  45.6510410  38.9709910  42.0953800
  45.0945340  40.3192910  41.6900800  43.0739650  38.4859980  43.6676670
  42.7696720  39.3651960  43.8927030  44.0286110  38.5459770  43.7034110
  41.6021440  42.6920970  34.2643520  40.8283700  42.1518590  34.1042240
  42.3316070  42.1727580  33.9261280  52.3609420  41.6886330  40.0569910
  53.0808540  42.1841620  39.6666020  52.1591240  41.0104220  39.4123780
  47.8219360  33.0824290  34.1999300  47.0083970  32.5837460  34.1244610
  47.6281310  33.9222540  33.7835650  47.7428220  41.7595390  45.9438910
  47.6765530  40.8391060  45.6896500  47.1133360  41.8570830  46.6583550
  50.5367750  37.4543940  32.4961460  51.4247370  37.7661170  32.3212800
  50.5072840  36.5816190  32.1042040  41.6458840  42.3601350  37.9022330
  42.1637510  41.5569610  37.8479220  41.1942860  42.2980490  38.7439160
  46.5328340  43.6267630  33.1749630  46.8744040  44.3709860  32.6792950
  45.7041050  43.9398750  33.5374460  39.1303380  39.3262720  44.8148030
  38.7718320  39.9916570  45.4021370  38.8357940  38.4946270  45.1860650
  42.3316500  39.7846960  47.6987580  42.0316640  39.9304140  46.8015400
  43.1027740  39.2252250  47.6060970  47.6744950  44.5815960  45.6942710
  47.6889490  43.6496920  45.4761620  46.9670050  44.6675720  46.3332480
  52.8082020  38.7655780  31.9641320  52.7245740  39.1970000  31.1137760
  53.5276210  39.2254130  32.3968140  53.8856160  41.2223300  45.0411290
  53.1604350  41.8152080  44.8440680  54.4131620  41.2146840  44.2424660
  53.8369270  45.6198040  34.6923450  53.1945430  44.9653660  34.9667170
  53.4499930  46.0253130  33.9164120  49.4155750  42.9483470  38.5395140
  49.7679570  42.3511600  37.8796510  48.5318080  42.6227700  38.7103390
  45.5019030  43.7081160  35.9465550  46.1890160  44.2550370  36.3273140
  44.7151450  44.2521890  35.9815160  44.8046240  40.7127190  35.5590910
  45.2609020  41.5232440  35.7851100  44.4534450  40.3950330  36.3909400
  47.1078850  46.2233530  42.7883210  47.7521070  46.4292910  43.4656630
  47.4708290  45.4621930  42.3354060  40.7058020  31.0564840  36.0313430
  40.5772650  31.0482740  36.9798350  39.8820040  31.3947930  35.6804440
  48.3810930  44.2265880  41.5060660  49.0233160  43.5259040  41.6192830
  48.9060280  45.0064320  41.3257550  52.2266650  44.5114500  31.2299800
  52.0004230  43.7944940  31.8224440  51.8362850  44.2626940  30.3921550
  50.1548550  45.0260780  44.7096720  50.4904790  45.6127470  45.3874640
  49.2348890  44.8953490  44.9394510  38.0082680  48.5381360  32.0044260
  38.3680320  49.1370700  31.3501530  37.8675020  49.0841250  32.7779290
  37.7051950  32.8155960  45.4920130  36.9910470  33.0152880  46.0972740
  38.1246990  32.0395530  45.8634930  51.8082900  42.4286440  32.8913960
  51.5204600  42.8899130  33.6791840  52.6035070  41.9684210  33.1598180
  37.9924540  46.8036220  46.4786660  38.1015660  45.8630960  46.3382050
  37.3405100  47.0690970  45.8300390  45.9837130  45.0752110  47.8784780
  45.6634000  44.3561350  48.4230470  45.3095490  45.7507180  47.9520840
  44.0251300  45.9212560  32.8217930  44.0161400  46.6542250  32.2062440
  43.1049660  45.6744140  32.9144890  49.1990730  35.3078270  43.2421580
  49.5671550  34.4873480  43.5701150  48.3388930  35.3680160  43.6577230
  52.5652760  34.2635210  34.0509140  51.9365920  34.3680880  33.3367370
  52.0704680  34.4831990  34.8403020  47.0110900  45.9840800  31.4843120
  47.1122880  45.7804790  30.5545100  46.1112640  45.7299080  31.6890900
  44.5336790  36.5421160  35.4667020  43.8252940  37.0107500  35.9080630
  44.8181270  35.8843170  36.1012210  46.1592720  37.9617860  43.4659550
  46.6577970  38.4363680  44.1311400  46.3015670  37.0381380  43.6729580
  48.5652220  33.2671820  36.9062810  48.4420000  33.2857950  35.9572320
  49.5136780  33.3150760  37.0261210  45.6529010  48.5027120  36.1790790
  45.9070510  48.4648510  35.2570160  44.7041490  48.3760450  36.1719040
  42.7371810  34.8506240  32.8417730  43.5862340  35.2876390  32.7757920
  42.3703080  35.1626500  33.6689790  53.3659580  34.1785820  44.3087940
  52.8633180  34.9191220  44.6481750  54.1816240  34.5669820  43.9924730
  51.6581590  39.4219000  37.7549300  50.7171730  39.4369230  37.9296990
  51.9725660  38.6354960  38.2009600  41.6363230  41.1038600  31.3153260
  42.4026500  40.9919960  31.8778690  41.7137920  40.4076570  30.6630030
  53.6607170  46.5927850  39.4303560  53.7854590  47.4159020  39.9027370
  54.5272730  46.3818580  39.0827710  41.1324700  48.6859060  39.1020690
  41.8687180  48.1374520  39.3729260  41.5165620  49.5515070  38.9626680
  38.0170180  44.7532630  34.9762200  37.0909960  44.9953770  34.9667610
  38.4826610  45.5806890  34.8546950  40.1382980  47.8705130  48.2906270
  40.9395710  48.1917180  48.7041670  39.6234800  47.5100710  49.0126180
  44.2427010  47.8589370  30.9246260  45.0355620  48.1478200  30.4728050
  43.7231360  47.4281540  30.2458740  48.9747610  43.9785000  48.2381680
  48.3685770  44.0016600  47.4977430  48.6701720  43.2468040  48.7748930
  50.4047980  47.7065290  46.8491090  51.3569730  47.6223310  46.7991330
  50.2576200  48.3707000  47.5224880  53.2957180  47.0859500  32.3483000
  53.0098690  46.6724640  31.5337180  53.0976730  48.0147210  32.2283520
  37.8580790  40.3578590  47.2342320  38.3619810  39.7785870  47.8058550
  37.1188210  40.6418820  47.7718690  44.7604410  43.0792780  30.7888610
  44.6555050  42.4645130  31.5149990  44.5928630  42.5558670  30.0051620
  44.9118730  41.7649580  46.7677840  44.1464400  42.3334580  46.6832510
  45.0934690  41.4725790  45.8746070  48.0007140  42.1412810  31.3930600
  47.4517240  42.5882110  32.0373340  48.6226400  41.6362060  31.9168270
  52.0542080  43.4954910  47.3252860  52.7951550  43.8330670  46.8220320
  51.2914760  43.6646970  46.7722630  39.8903870  38.5008180  48.1292390
  39.9309210  38.2022050  49.0377620  40.7449370  38.9015790  47.9699910
  43.6682260  41.1003730  33.2895900  44.0898680  40.9343600  34.1327290
  43.7933100  40.2903960  32.7951040  41.8309680  37.0800280  46.0966880
  41.3006140  36.5891230  45.4690220  42.4997750  37.5084480  45.5624810
  46.1809900  40.1241340  30.5373000  46.7015560  39.4090360  30.1714150
  46.8278300  40.7627210  30.8373510  50.7287740  41.5469740  45.8608070
  51.1428760  41.7014820  46.7098490  49.7938740  41.6724960  46.0233850
  51.2009910  38.8865900  47.8647220  51.7830680  38.1318220  47.7767700
  51.3771680  39.4173340  47.0878700  42.3181980  34.0462650  46.1764170
  42.2238850  33.4283400  45.4515040  41.7379370  34.7728940  45.9494080
  45.0843420  32.6035890  43.2091560  44.6360720  32.6260150  42.3637110
  44.4508620  32.2054910  43.8061860  45.4902970  41.4990220  43.8304000
  45.9091080  42.3422950  43.6580240  44.5711600  41.6362260  43.6010780
  47.8266870  39.2306400  45.2141840  47.9463080  38.6347540  45.9536680
  48.6860870  39.2676090  44.7943140  50.1654770  39.7843590  43.7904350
  49.6389990  40.3086210  43.1869490  50.5086110  40.4170980  44.4214080
  42.5641160  37.1736960  30.2354060  42.3630220  36.3104320  30.5967400
  42.3933210  37.0870320  29.2975660  43.3410390  47.8043230  44.9461730
  42.8031480  48.5289290  44.6270430  43.5944350  47.3273570  44.1559070
  44.5935640  35.7727750  46.4717660  45.1835330  35.4643600  47.1595480
  43.7755880  35.3007500  46.6277560  49.4129070  35.3893560  46.7050680
  48.7244590  34.7275100  46.6400670  50.1335090  34.9431830  47.1499140
  50.0429470  31.9845190  32.7640940  50.3231760  31.1413090  33.1200360
  49.2695200  32.2168300  33.2779690  41.3623960  34.2737580  30.2231940
  41.6649860  34.2805010  29.3151090  42.1018550  33.9235440  30.7199600
  46.1972600  49.0394440  45.2048380  46.1231300  49.9429580  45.5120750
  45.2951440  48.7206340  45.1770450  44.5808890  33.2172200  31.2088140
  44.2330890  32.5396190  30.6290590  44.7821660  32.7561710  32.0231530
  46.7457930  48.2052950  32.8274740  47.6408720  48.5437920  32.8493500
  46.7775560  47.4832360  32.1999020  40.3854090  43.5780000  31.0561740
  40.8228960  44.1209670  31.7119320  40.8701820  42.7526950  31.0658080
  37.5999890  46.3669030  38.5082000  37.9302900  45.4990090  38.2760640
  38.0290890  46.5727550  39.3386960  42.1961810  44.6978040  36.1683970
  41.8957350  44.5743010  37.0687880  42.0899300  43.8386630  35.7599700
  38.0890100  47.2339620  41.2463630  37.6521090  47.4140420  42.0787780
  38.6567780  47.9914240  41.1045350  53.7252280  46.7356620  45.5340940
  53.1254270  46.7949180  44.7904860  53.8546180  45.7961600  45.6637790
  54.9653730  44.4774440  30.8710650  54.1346690  44.5451090  31.3417880
  55.1425560  45.3678560  30.5677510  54.4210190  41.2221920  33.3744850
  55.1829100  41.7918570  33.4804540  54.4364560  40.6549120  34.1453160
  55.4270160  42.0772020  38.2186780  55.7978990  41.2939340  37.8122750
  56.0672090  42.7661120  38.0404080  52.4103920  43.4608600  43.6317100
  51.5963760  43.8905760  43.8942890  52.8178120  44.0727010  43.0186150
  54.4729360  41.5156290  30.5317370  54.7478200  42.4235170  30.4036590
  54.2840100  41.4518820  31.4679360  50.8704970  34.5401140  31.8271000
  51.2889850  34.3532120  30.9867660  50.5641030  33.6880190  32.1373930
  54.3694700  39.4525280  35.5246800  53.9938300  38.6853210  35.0928090
  53.6397820  39.8347980  36.0121730  38.9590460  40.1312420  42.1455850
  39.3263500  40.0439820  43.0251870  38.3901280  39.3678970  42.0462710
  53.7594320  38.5996800  45.1586320  53.5280410  38.3709550  44.2584270
  54.0198870  39.5196350  45.1131210  38.5106460  37.0421510  46.0514270
  37.6162510  37.0088270  46.3907980  39.0504010  37.2408300  46.8165520
  52.1982390  33.8253230  47.9366020  53.0752570  33.8336630  48.3200020
  52.2103230  33.0884070  47.3258370  53.6445660  37.6782770  38.8254040
  54.1683140  37.1845420  38.1944210  54.2305080  37.8133130  39.5701610
  53.8235380  37.7622640  42.3473590  52.8738090  37.7286180  42.4618580
  54.0048390  38.6722750  42.1123360  39.3253980  32.0663650  30.4974870
  40.0482110  32.6072590  30.8156090  39.5978500  31.7927070  29.6216410
  53.1345630  36.9356120  34.7646450  53.6304750  36.7026990  35.5495330
  52.9361700  36.0967960  34.3484090  39.0146170  31.3169840  40.3997490
  39.6622360  30.7667220  39.9592650  39.4348010  31.5712990  41.2213300
  54.5632790  35.5717070  37.2984130  54.4532070  35.4173110  38.2366400
  55.3240380  35.0438010  37.0559540  52.9098510  31.5111200  43.7567130
  53.5470730  32.1245340  44.1226320  53.0573400  31.5471860  42.8116360
  55.4523060  33.4024990  30.5390270  56.3772370  33.2706170  30.3308560
  55.4298850  33.4817810  31.4926720  55.5261550  34.1735650  33.1646980
  54.7313050  34.1080770  33.6939890  55.7304830  35.1086290  33.1532330
  52.4679970  48.2127200  37.1585370  53.0639040  47.8911770  36.4819790
  52.7258120  47.7399020  37.9498640  38.7678170  31.4725510  43.1422810
  38.4192990  31.9289330  43.9080990  38.4365870  30.5782640  43.2245240
  40.3742540  44.6445110  47.3076000  40.3312170  44.2738020  48.1890460
  40.5053550  45.5822680  47.4477820  44.0748570  46.2004700  42.9085720
  43.8339930  46.4679260  42.0216240  45.0151210  46.3710430  42.9636580
  46.2802990  32.6637390  46.6642230  46.2191880  33.2559220  47.4137640
  47.2203370  32.5563350  46.5192490  48.9177550  32.3207450  46.3034520
  49.5317960  32.6386740  45.6415600  49.4627110  31.8356040  46.9230380
  55.3352730  48.2199080  43.7096360  54.8411010  48.6167950  42.9923490
  54.7266020  47.5948290  44.1033640  39.4398810  31.0001710  46.4173580
  39.9881800  30.8189760  45.6539690  39.5054120  30.2095820  46.9529890
  40.2130570  47.5907360  44.4273780  39.6190890  47.4592060  45.1663820
  40.2054410  46.7545500  43.9615880  49.6585590  30.8839590  42.6303810
  48.7845430  31.2174700  42.4276740  49.5496340  30.4112770  43.4555680
  50.5657570  33.0910460  44.0145530  50.2370930  32.2762220  43.6347260
  51.5139870  33.0480270  43.8911220  53.0192180  48.8622500  40.9883100
  52.5595150  49.6138310  40.6141120  52.3904640  48.1428970  40.9297900
  39.8442800  44.9565740  43.3781820  39.1176860  44.3371030  43.3107770
  39.9051950  45.3506350  42.5079900  43.4487900  47.1710740  40.1631230
  43.9652920  46.5598100  39.6379490  44.0985280  47.6739520  40.6542240
  46.1883400  48.0619230  40.9900210  46.4761210  47.8073530  40.1133220
  46.7006620  47.5096590  41.5805780  47.4060410  31.8009430  41.5696720
  46.6232200  32.2754930  41.8493480  47.1123340  30.8964260  41.4609900
  51.9581480  32.5032530  39.6145810  52.3989570  32.4477630  38.7667410
  51.6889070  33.4190540  39.6855990  53.8220050  32.1347770  37.6254630
  53.7608450  31.1908990  37.4785650  54.6012080  32.2427860  38.1708090
  38.1272800  48.2740130  36.5878580  37.9594840  47.6410810  37.2860470
  37.2607310  48.4799530  36.2372770  45.2914630  34.2196180  37.0812750
  44.4789140  33.8453070  36.7408630  45.7956270  33.4641260  37.3833940
  49.7939610  30.8838630  38.3195820  50.3968980  31.4558840  38.7944340
  49.0532600  31.4478070  38.0969720  52.9374210  31.2860190  33.5936100
  53.1324840  32.1843640  33.8603530  52.1504080  31.0547270  34.0869050
  39.7335500  46.9673360  34.0328720  39.2083120  47.3481390  33.3290680
  39.6580080  47.5924130  34.7538430  41.1225970  32.6320960  32.6312410
  41.6518730  31.8450760  32.5020360  41.7554290  33.3112150  32.8647940
  43.3163810  32.3696100  35.6857800  42.6866550  31.6683410  35.8527930
  42.7768950  33.1300230  35.4690960  46.2555760  48.9835330  48.3568410
  47.1823070  48.7479600  48.4004370  46.2406190  49.8107330  47.8754440
  54.4900820  48.5260900  35.3542660  54.6653010  47.8398640  34.7103580
  53.7922390  49.0507950  34.9619330  43.4419370  31.6480080  48.1210290
  43.1603640  32.1513680  47.3571110  43.8239070  30.8501830  47.7552420
  42.3328470  48.9155740  32.9077970  43.0647290  48.6315020  32.3601860
  42.5922140  48.6769020  33.7977350  41.4943260  45.0320470  32.9124300
  40.8652140  45.5005570  33.4610130  41.6091090  44.1869690  33.3470490
  50.0434830  31.0633660  48.6990760  49.9300280  31.3828270  49.5942280
  50.8604570  31.4646170  48.4028040  52.8233320  48.2105190  48.1809450
  53.6158640  47.7154420  47.9735410  53.1166470  48.8895330  48.7885060
  48.9492980  39.0826130  19.0625500  48.8687030  38.1680740  18.7917210
  48.5357400  39.5793200  18.3565210  47.0811020  40.8605150  20.9434770
  46.3053120  40.3805590  21.2333340  47.7323950  40.1810800  20.7690930
  41.0976850  41.1724960  21.8210530  40.2661730  40.9173670  22.2207040
  41.7057830  41.2435730  22.5568450  51.1018450  45.2665340  19.7233900
  50.6399980  44.4952580  20.0521070  51.9144000  45.2931410  20.2286350
  41.0778110  45.2065050  22.0168550  41.3806150  44.3162790  21.8378770
  41.8221700  45.7635270  21.7890800  39.5068800  36.1326850  15.6052920
  38.6185500  36.4742820  15.5032800  39.7909990  35.9327170  14.7133750
  37.4701810  38.7332500  21.4892620  38.0417920  37.9654700  21.4896260
  37.4703350  39.0321260  20.5799230  47.3281760  47.5523350  19.3437890
  46.7093200  48.0080850  18.7732330  48.1833540  47.7074810  18.9427590
  46.5220010  43.5362340  20.9504930  46.4528290  42.5952280  20.7894060
  47.2839870  43.6263750  21.5227500  38.7126680  34.1416860  23.2761550
  38.5329520  33.2442610  23.5564310  38.3106760  34.6888730  23.9508500
  47.5525180  36.3432720  21.1773860  47.9290000  35.4704600  21.0647530
  47.4544690  36.6791420  20.2864300  41.6830190  34.7158350  16.6391300
  41.7896940  35.6162080  16.9460060  40.7722550  34.6676320  16.3485950
  51.3349300  33.8383160  18.1102200  52.1558920  33.3479730  18.1527680
  51.3683380  34.4280820  18.8634040  39.3313350  36.6377360  21.8843890
  40.0123460  36.9015730  22.5031290  39.0161400  35.7978230  22.2181900
  43.5237920  37.6844720  20.9716480  44.0316140  38.1825690  21.6121500
  44.0551160  36.9079920  20.7955840  55.6248850  35.8549910  24.6745830
  54.9201020  36.2431620  24.1560940  55.8906770  36.5500200  25.2766760
  41.8074020  32.3243280  25.2379900  41.8092460  32.8415670  24.4325800
  40.9778330  31.8473460  25.2149830  48.1945110  42.4362590  16.7369800
  47.5762380  42.9012040  16.1732520  48.7068360  43.1290070  17.1539310
  43.0576870  41.9638460  23.4153400  42.7246250  42.5907380  24.0574470
  43.2343550  42.4900340  22.6355070  51.5710780  35.7783540  20.8829740
  50.8666350  36.0668430  21.4632850  51.9322940  36.5883650  20.5229300
  41.4889350  34.0353240  23.2450350  41.8306160  34.8795290  22.9504220
  40.5505160  34.1836980  23.3615690  42.2695970  43.9319260  25.2302580
  42.8869970  44.6070340  24.9487030  41.4089090  44.3407240  25.1390080
  37.5628310  43.1219120  14.1109430  37.1856290  43.6106220  13.3794330
  37.8201380  43.7944400  14.7415960  53.1873560  45.3958670  23.1457220
  52.5037080  46.0657780  23.1373890  53.7267850  45.5939320  22.3802080
  54.6397700  35.2238330  21.2738950  53.6922610  35.2577310  21.4054380
  54.9647690  36.0377280  21.6588310  45.1717240  31.5235510  19.5694940
  45.4792220  30.9682400  18.8530440  44.2417940  31.6579970  19.3867930
  50.7232300  47.2402800  21.8602400  50.7359460  46.8365090  20.9924660
  50.1707520  48.0150090  21.7563830  52.0177720  43.9619020  16.9492570
  51.9074050  43.0193350  17.0741990  52.0145970  44.3234660  17.8355330
  50.1217740  42.1432640  23.1885010  50.5386530  41.9292750  22.3538470
  50.8457560  42.4005430  23.7593630  47.5598000  39.5884340  16.3055060
  46.6327280  39.5221720  16.5343530  47.7122820  40.5264470  16.1910300
  47.5467080  35.8601340  13.3022220  46.6070750  36.0215300  13.3874680
  47.8650340  36.5787020  12.7558210  54.0679840  40.5419860  23.2801250
  53.2398470  40.6112950  22.8051380  54.6630320  41.1274170  22.8117080
  51.5895290  41.1504640  16.8090310  50.9707710  40.8124190  16.1616610
  51.5719740  40.5064400  17.5169500  51.0321850  37.3289180  24.2256120
  50.6193030  38.1542890  24.4796110  50.2997800  36.7434220  24.0332480
  43.1654640  40.1149080  19.0874790  42.7611640  39.4026330  18.5920690
  43.2517760  39.7702320  19.9762830  43.6336340  43.8016640  21.2514000
  43.3364630  43.1962110  20.5721780  44.5836160  43.8393950  21.1403360
  41.8783260  36.8892290  22.8673830  42.4297850  36.9987630  22.0927080
  42.3926770  37.2629890  23.5829060  51.7221950  47.3748510  24.9137100
  51.2452510  48.1820700  24.7209710  51.0383740  46.7226840  25.0663310
  42.7254770  43.5398330  27.9021800  41.8283300  43.7638300  28.1495200
  42.7507640  43.6633270  26.9533200  49.7659990  40.3891450  13.8163060
  50.2053270  39.5513880  13.6700880  50.4788410  41.0220850  13.9027200
  41.5525990  40.4111650  26.4779170  41.4133760  41.2834450  26.8466570
  40.6707350  40.0684460  26.3327110  47.8755370  45.3287520  17.7844300
  48.3151280  46.0711850  17.3699690  47.8142260  45.5714090  18.7083260
  43.3506340  46.3533350  28.6864320  43.3221770  46.7576300  27.8192750
  43.1871310  45.4243710  28.5235920  53.3477130  31.6434260  12.1304100
  53.0349790  31.7361090  13.0303170  54.1089600  32.2215290  12.0801530
  39.8659270  39.0094060  16.5881440  39.7456870  39.7356150  15.9762710
  39.5560160  38.2396970  16.1109350  55.3021160  47.1360450  29.9828490
  55.7780880  47.6143340  30.6617570  55.9228320  47.0677940  29.2573990
  37.5044640  42.1809200  22.3950080  37.5825060  42.3157970  21.4505800
  38.1186320  41.4725090  22.5878200  38.7492270  43.8809390  18.8056260
  38.3420350  44.0223980  17.9509860  39.6405280  43.5969550  18.6027470
  54.7054410  44.3273300  27.1428500  54.8317470  44.0885180  26.2245680
  54.7475790  43.4957840  27.6150580  48.5671150  48.0301300  25.7123310
  49.0815820  47.9409310  26.5145740  47.7240230  48.3761000  26.0051220
  50.5425550  48.3156640  15.1407310  50.3826690  48.0259580  16.0389140
  50.3772260  47.5396770  14.6052540  43.0213930  48.0955170  16.9178930
  42.8456410  47.1790710  16.7046730  42.1669670  48.4542460  17.1576730
  50.2451680  45.8244200  13.7005310  49.5516840  45.8221490  13.0407590
  50.9874540  45.4003520  13.2699480  49.8101610  47.4506910  17.7753800
  50.2658560  46.6696290  18.0892420  50.1494130  48.1613730  18.3194980
  54.5578420  36.3805760  28.1078240  53.9422690  36.8885430  27.5793700
  54.2374840  35.4804090  28.0504180  37.5604160  43.2223370  24.9344540
  37.7235200  42.7528730  24.1163910  38.0256610  42.7146930  25.5993380
  42.3322930  32.3529130  19.9705110  41.8891080  33.1338670  19.6389630
  42.8907920  32.6759020  20.6776050  46.6192740  35.2197650  25.5740430
  46.1572110  35.4280670  26.3860370  46.2170850  34.4057000  25.2711100
  51.6197250  36.4406600  26.7037090  50.7690840  36.1412350  27.0246160
  51.4599040  36.6848610  25.7920910  48.7146960  37.9408350  28.8035880
  49.0400370  37.1072100  28.4638110  49.5027290  38.4636870  28.9514210
  45.4481750  31.9739830  14.8510940  44.8235930  31.9699700  15.5764250
  45.3611870  31.1070790  14.4546910  44.3698830  32.8976460  21.8294710
  44.6671160  33.8039290  21.7486730  44.9184390  32.4095240  21.2154280
  42.1237150  37.4762700  17.6986360  41.8978070  37.2599870  18.6032980
  41.3429680  37.9091160  17.3532330  49.3534910  37.4826070  16.2977010
  48.7543800  38.2061870  16.1140630  49.9014520  37.4202850  15.5153460
  44.5636360  38.3748280  28.3646630  44.4679960  37.4343010  28.2147030
  45.4068340  38.5963350  27.9694700  47.9599780  36.1189610  18.3280290
  48.3529350  36.4361810  17.5148980  48.3216630  35.2401490  18.4424810
  39.6946900  34.7861950  26.5180410  39.3010290  35.6337160  26.7253190
  39.0065300  34.1488320  26.7089050  46.2691950  34.8696920  29.5877150
  45.5790270  34.6769120  30.2223240  47.0124250  35.1531560  30.1201450
  36.9963950  32.7090410  20.5510490  36.7077000  33.2793270  21.2635470
  37.7409710  32.2294860  20.9141720  37.1834180  36.6510530  11.7613210
  37.1008850  37.5941290  11.9028200  36.8317240  36.5085440  10.8825560
  48.5454920  38.7095360  22.4231070  47.8136040  39.2182170  22.7721170
  48.1479260  37.8925340  22.1219850  44.9832310  35.3849560  20.8283560
  44.9868370  34.9439510  19.9788100  45.8783430  35.7066890  20.9355380
  40.8334690  35.2676050  19.7877770  40.4934740  35.7451280  20.5444820
  40.0712010  34.8141170  19.4278870  45.0452460  36.3861640  13.8190320
  45.1665280  36.3448120  14.7676140  44.6600970  37.2485790  13.6637050
  49.0080830  34.1629040  21.8354010  49.0253570  34.6137690  22.6795860
  48.7596410  33.2634680  22.0487450  44.0573960  38.6962780  13.2173620
  43.4890860  38.2481030  12.5909530  44.7662960  39.0555560  12.6838770
  52.4351580  31.5761220  27.6740390  52.7597350  30.8450880  28.1998370
  52.4708090  31.2574860  26.7721380  39.1343140  42.5974800  27.0940350
  38.7497930  41.9568470  27.6923310  39.4455330  43.3010920  27.6635080
  45.2840280  39.4451340  22.5748970  45.6510410  38.9709910  23.3210310
  45.0945340  40.3192910  22.9157310  38.1480770  34.1895030  18.7042440
  37.8627690  33.8250700  19.5421060  38.0859630  33.4575490  18.0905580
  43.0739650  38.4859980  24.8933180  42.7696720  39.3651960  25.1183540
  44.0286110  38.5459770  24.9290620  41.6021440  42.6920970  15.4900030
  40.8283700  42.1518590  15.3298750  42.3316070  42.1727580  15.1517790
  52.3609420  41.6886330  21.2826420  53.0808540  42.1841620  20.8922530
  52.1591240  41.0104220  20.6380290  47.8219360  33.0824290  15.4255810
  47.0083970  32.5837460  15.3501120  47.6281310  33.9222540  15.0092160
  47.7428220  41.7595390  27.1695420  47.6765530  40.8391060  26.9153010
  47.1133360  41.8570830  27.8840060  50.5367750  37.4543940  13.7217970
  51.4247370  37.7661170  13.5469310  50.5072840  36.5816190  13.3298550
  41.6458840  42.3601350  19.1278840  42.1637510  41.5569610  19.0735730
  41.1942860  42.2980490  19.9695670  46.5328340  43.6267630  14.4006140
  46.8744040  44.3709860  13.9049460  45.7041050  43.9398750  14.7630970
  39.1303380  39.3262720  26.0404540  38.7718320  39.9916570  26.6277880
  38.8357940  38.4946270  26.4117160  42.3316500  39.7846960  28.9244090
  42.0316640  39.9304140  28.0271910  43.1027740  39.2252250  28.8317480
  47.6744950  44.5815960  26.9199220  47.6889490  43.6496920  26.7018130
  46.9670050  44.6675720  27.5588990  52.8082020  38.7655780  13.1897830
  52.7245740  39.1970000  12.3394270  53.5276210  39.2254130  13.6224650
  53.8856160  41.2223300  26.2667800  53.1604350  41.8152080  26.0697190
  54.4131620  41.2146840  25.4681170  53.8369270  45.6198040  15.9179960
  53.1945430  44.9653660  16.1923680  53.4499930  46.0253130  15.1420630
  49.4155750  42.9483470  19.7651650  49.7679570  42.3511600  19.1053020
  48.5318080  42.6227700  19.9359900  45.5019030  43.7081160  17.1722060
  46.1890160  44.2550370  17.5529650  44.7151450  44.2521890  17.2071670
  37.6411430  39.3253980  12.6639140  38.5106280  39.6078780  12.9475060
  37.1501750  40.1389850  12.5487950  44.8046240  40.7127190  16.7847420
  45.2609020  41.5232440  17.0107610  44.4534450  40.3950330  17.6165910
  47.1078850  46.2233530  24.0139720  47.7521070  46.4292910  24.6913140
  47.4708290  45.4621930  23.5610570  40.7058020  31.0564840  17.2569940
  40.5772650  31.0482740  18.2054860  39.8820040  31.3947930  16.9060950
  48.3810930  44.2265880  22.7317170  49.0233160  43.5259040  22.8449340
  48.9060280  45.0064320  22.5514060  52.2266650  44.5114500  12.4556310
  52.0004230  43.7944940  13.0480950  51.8362850  44.2626940  11.6178060
  50.1548550  45.0260780  25.9353230  50.4904790  45.6127470  26.6131150
  49.2348890  44.8953490  26.1651020  38.0082680  48.5381360  13.2300770
  38.3680320  49.1370700  12.5758040  37.8675020  49.0841250  14.0035800
  37.7051950  32.8155960  26.7176640  36.9910470  33.0152880  27.3229250
  38.1246990  32.0395530  27.0891440  51.8082900  42.4286440  14.1170470
  51.5204600  42.8899130  14.9048350  52.6035070  41.9684210  14.3854690
  37.9924540  46.8036220  27.7043170  38.1015660  45.8630960  27.5638560
  37.3405100  47.0690970  27.0556900  45.9837130  45.0752110  29.1041290
  45.6634000  44.3561350  29.6486980  45.3095490  45.7507180  29.1777350
  44.0251300  45.9212560  14.0474440  44.0161400  46.6542250  13.4318950
  43.1049660  45.6744140  14.1401400  39.6257940  41.1427450  14.7921200
  39.0185890  41.8826350  14.8016500  40.1007290  41.2326810  13.9659400
  49.1990730  35.3078270  24.4678090  49.5671550  34.4873480  24.7957660
  48.3388930  35.3680160  24.8833740  52.5652760  34.2635210  15.2765650
  51.9365920  34.3680880  14.5623880  52.0704680  34.4831990  16.0659530
  47.0110900  45.9840800  12.7099630  47.1122880  45.7804790  11.7801610
  46.1112640  45.7299080  12.9147410  44.5336790  36.5421160  16.6923530
  43.8252940  37.0107500  17.1337140  44.8181270  35.8843170  17.3268720
  46.1592720  37.9617860  24.6916060  46.6577970  38.4363680  25.3567910
  46.3015670  37.0381380  24.8986090  48.5652220  33.2671820  18.1319320
  48.4420000  33.2857950  17.1828830  49.5136780  33.3150760  18.2517720
  45.6529010  48.5027120  17.4047300  45.9070510  48.4648510  16.4826670
  44.7041490  48.3760450  17.3975550  42.7371810  34.8506240  14.0674240
  43.5862340  35.2876390  14.0014430  42.3703080  35.1626500  14.8946300
  53.3659580  34.1785820  25.5344450  52.8633180  34.9191220  25.8738260
  54.1816240  34.5669820  25.2181240  51.6581590  39.4219000  18.9805810
  50.7171730  39.4369230  19.1553500  51.9725660  38.6354960  19.4266110
  41.6363230  41.1038600  12.5409770  42.4026500  40.9919960  13.1035200
  41.7137920  40.4076570  11.8886540  40.3309990  38.5363670  13.2242660
  40.4113580  37.5891180  13.3360060  41.2229740  38.8670550  13.3303320
  53.6607170  46.5927850  20.6560070  53.7854590  47.4159020  21.1283880
  54.5272730  46.3818580  20.3084220  41.1324700  48.6859060  20.3277200
  41.8687180  48.1374520  20.5985770  41.5165620  49.5515070  20.1883190
  38.0170180  44.7532630  16.2018710  37.0909960  44.9953770  16.1924120
  38.4826610  45.5806890  16.0803460  40.1382980  47.8705130  29.5162780
  40.9395710  48.1917180  29.9298180  39.6234800  47.5100710  30.2382690
  44.2427010  47.8589370  12.1502770  45.0355620  48.1478200  11.6984560
  43.7231360  47.4281540  11.4715250  48.9747610  43.9785000  29.4638190
  48.3685770  44.0016600  28.7233940  48.6701720  43.2468040  30.0005440
  50.4047980  47.7065290  28.0747600  51.3569730  47.6223310  28.0247840
  50.2576200  48.3707000  28.7481390  53.2957180  47.0859500  13.5739510
  53.0098690  46.6724640  12.7593690  53.0976730  48.0147210  13.4540030
  37.8580790  40.3578590  28.4598830  38.3619810  39.7785870  29.0315060
  37.1188210  40.6418820  28.9975200  44.7604410  43.0792780  12.0145120
  44.6555050  42.4645130  12.7406500  44.5928630  42.5558670  11.2308130
  44.9118730  41.7649580  27.9934350  44.1464400  42.3334580  27.9089020
  45.0934690  41.4725790  27.1002580  48.0007140  42.1412810  12.6187110
  47.4517240  42.5882110  13.2629850  48.6226400  41.6362060  13.1424780
  52.0542080  43.4954910  28.5509370  52.7951550  43.8330670  28.0476830
  51.2914760  43.6646970  27.9979140  39.8903870  38.5008180  29.3548900
  39.9309210  38.2022050  30.2634130  40.7449370  38.9015790  29.1956420
  43.6682260  41.1003730  14.5152410  44.0898680  40.9343600  15.3583800
  43.7933100  40.2903960  14.0207550  41.8309680  37.0800280  27.3223390
  41.3006140  36.5891230  26.6946730  42.4997750  37.5084480  26.7881320
  46.1809900  40.1241340  11.7629510  46.7015560  39.4090360  11.3970660
  46.8278300  40.7627210  12.0630020  50.7287740  41.5469740  27.0864580
  51.1428760  41.7014820  27.9355000  49.7938740  41.6724960  27.2490360
  51.2009910  38.8865900  29.0903730  51.7830680  38.1318220  29.0024210
  51.3771680  39.4173340  28.3135210  42.3181980  34.0462650  27.4020680
  42.2238850  33.4283400  26.6771550  41.7379370  34.7728940  27.1750590
  45.0843420  32.6035890  24.4348070  44.6360720  32.6260150  23.5893620
  44.4508620  32.2054910  25.0318370  45.4902970  41.4990220  25.0560510
  45.9091080  42.3422950  24.8836750  44.5711600  41.6362260  24.8267290
  47.8266870  39.2306400  26.4398350  47.9463080  38.6347540  27.1793190
  48.6860870  39.2676090  26.0199650  50.1654770  39.7843590  25.0160860
  49.6389990  40.3086210  24.4126000  50.5086110  40.4170980  25.6470590
  42.5641160  37.1736960  11.4610570  42.3630220  36.3104320  11.8223910
  42.3933210  37.0870320  10.5232170  43.3410390  47.8043230  26.1718240
  42.8031480  48.5289290  25.8526940  43.5944350  47.3273570  25.3815580
  44.5935640  35.7727750  27.6974170  45.1835330  35.4643600  28.3851990
  43.7755880  35.3007500  27.8534070  49.4129070  35.3893560  27.9307190
  48.7244590  34.7275100  27.8657180  50.1335090  34.9431830  28.3755650
  50.0429470  31.9845190  13.9897450  50.3231760  31.1413090  14.3456870
  49.2695200  32.2168300  14.5036200  41.3623960  34.2737580  11.4488450
  41.6649860  34.2805010  10.5407600  42.1018550  33.9235440  11.9456110
  46.1972600  49.0394440  26.4304890  46.1231300  49.9429580  26.7377260
  45.2951440  48.7206340  26.4026960  44.5808890  33.2172200  12.4344650
  44.2330890  32.5396190  11.8547100  44.7821660  32.7561710  13.2488040
  46.7457930  48.2052950  14.0531250  47.6408720  48.5437920  14.0750010
  46.7775560  47.4832360  13.4255530  40.3854090  43.5780000  12.2818250
  40.8228960  44.1209670  12.9375830  40.8701820  42.7526950  12.2914590
  37.5999890  46.3669030  19.7338510  37.9302900  45.4990090  19.5017150
  38.0290890  46.5727550  20.5643470  42.1961810  44.6978040  17.3940480
  41.8957350  44.5743010  18.2944390  42.0899300  43.8386630  16.9856210
  38.0890100  47.2339620  22.4720140  37.6521090  47.4140420  23.3044290
  38.6567780  47.9914240  22.3301860  53.7252280  46.7356620  26.7597450
  53.1254270  46.7949180  26.0161370  53.8546180  45.7961600  26.8894300
  54.9653730  44.4774440  12.0967160  54.1346690  44.5451090  12.5674390
  55.1425560  45.3678560  11.7934020  54.4210190  41.2221920  14.6001360
  55.1829100  41.7918570  14.7061050  54.4364560  40.6549120  15.3709670
  37.9214530  39.7459850  18.8309020  37.2663370  39.4771490  18.1868720
  38.7592480  39.6364330  18.3811000  55.4270160  42.0772020  19.4443290
  55.7978990  41.2939340  19.0379260  56.0672090  42.7661120  19.2660590
  52.4103920  43.4608600  24.8573610  51.5963760  43.8905760  25.1199400
  52.8178120  44.0727010  24.2442660  54.4729360  41.5156290  11.7573880
  54.7478200  42.4235170  11.6293100  54.2840100  41.4518820  12.6935870
  50.8704970  34.5401140  13.0527510  51.2889850  34.3532120  12.2124170
  50.5641030  33.6880190  13.3630440  54.3694700  39.4525280  16.7503310
  53.9938300  38.6853210  16.3184600  53.6397820  39.8347980  17.2378240
  38.9590460  40.1312420  23.3712360  39.3263500  40.0439820  24.2508380
  38.3901280  39.3678970  23.2719220  53.7594320  38.5996800  26.3842830
  53.5280410  38.3709550  25.4840780  54.0198870  39.5196350  26.3387720
  38.5106460  37.0421510  27.2770780  37.6162510  37.0088270  27.6164490
  39.0504010  37.2408300  28.0422030  52.1982390  33.8253230  29.1622530
  53.0752570  33.8336630  29.5456530  52.2103230  33.0884070  28.5514880
  37.1352610  36.9558780  14.7734350  36.2316690  37.2188980  14.5986010
  37.6193230  37.2269950  13.9934310  53.6445660  37.6782770  20.0510550
  54.1683140  37.1845420  19.4200720  54.2305080  37.8133130  20.7958120
  53.8235380  37.7622640  23.5730100  52.8738090  37.7286180  23.6875090
  54.0048390  38.6722750  23.3379870  39.6779820  36.0124320  12.6828730
  40.3871520  35.5907540  12.1976010  38.9619760  36.0799550  12.0512080
  39.3253980  32.0663650  11.7231380  40.0482110  32.6072590  12.0412600
  39.5978500  31.7927070  10.8472920  53.1345630  36.9356120  15.9902960
  53.6304750  36.7026990  16.7751840  52.9361700  36.0967960  15.5740600
  39.0146170  31.3169840  21.6254000  39.6622360  30.7667220  21.1849160
  39.4348010  31.5712990  22.4469810  54.5632790  35.5717070  18.5240640
  54.4532070  35.4173110  19.4622910  55.3240380  35.0438010  18.2816050
  52.9098510  31.5111200  24.9823640  53.5470730  32.1245340  25.3482830
  53.0573400  31.5471860  24.0372870  55.4523060  33.4024990  11.7646780
  56.3772370  33.2706170  11.5565070  55.4298850  33.4817810  12.7183230
  55.5261550  34.1735650  14.3903490  54.7313050  34.1080770  14.9196400
  55.7304830  35.1086290  14.3788840  52.4679970  48.2127200  18.3841880
  53.0639040  47.8911770  17.7076300  52.7258120  47.7399020  19.1755150
  38.7678170  31.4725510  24.3679320  38.4192990  31.9289330  25.1337500
  38.4365870  30.5782640  24.4501750  40.3742540  44.6445110  28.5332510
  40.3312170  44.2738020  29.4146970  40.5053550  45.5822680  28.6734330
  44.0748570  46.2004700  24.1342230  43.8339930  46.4679260  23.2472750
  45.0151210  46.3710430  24.1893090  46.2802990  32.6637390  27.8898740
  46.2191880  33.2559220  28.6394150  47.2203370  32.5563350  27.7449000
  48.9177550  32.3207450  27.5291030  49.5317960  32.6386740  26.8672110
  49.4627110  31.8356040  28.1486890  55.3352730  48.2199080  24.9352870
  54.8411010  48.6167950  24.2180000  54.7266020  47.5948290  25.3290150
  39.4398810  31.0001710  27.6430090  39.9881800  30.8189760  26.8796200
  39.5054120  30.2095820  28.1786400  40.2130570  47.5907360  25.6530290
  39.6190890  47.4592060  26.3920330  40.2054410  46.7545500  25.1872390
  49.6585590  30.8839590  23.8560320  48.7845430  31.2174700  23.6533250
  49.5496340  30.4112770  24.6812190  50.5657570  33.0910460  25.2402040
  50.2370930  32.2762220  24.8603770  51.5139870  33.0480270  25.1167730
  53.0192180  48.8622500  22.2139610  52.5595150  49.6138310  21.8397630
  52.3904640  48.1428970  22.1554410  39.8442800  44.9565740  24.6038330
  39.1176860  44.3371030  24.5364280  39.9051950  45.3506350  23.7336410
  43.4487900  47.1710740  21.3887740  43.9652920  46.5598100  20.8636000
  44.0985280  47.6739520  21.8798750  46.1883400  48.0619230  22.2156720
  46.4761210  47.8073530  21.3389730  46.7006620  47.5096590  22.8062290
  47.4060410  31.8009430  22.7953230  46.6232200  32.2754930  23.0749990
  47.1123340  30.8964260  22.6866410  51.9581480  32.5032530  20.8402320
  52.3989570  32.4477630  19.9923920  51.6889070  33.4190540  20.9112500
  53.8220050  32.1347770  18.8511140  53.7608450  31.1908990  18.7042160
  54.6012080  32.2427860  19.3964600  38.1272800  48.2740130  17.8135090
  37.9594840  47.6410810  18.5116980  37.2607310  48.4799530  17.4629280
  38.7500820  32.1056910  15.3166950  39.5080180  32.2185790  14.7430980
  38.2877990  32.9426110  15.2710380  45.2914630  34.2196180  18.3069260
  44.4789140  33.8453070  17.9665140  45.7956270  33.4641260  18.6090450
  49.7939610  30.8838630  19.5452330  50.3968980  31.4558840  20.0200850
  49.0532600  31.4478070  19.3226230  52.9374210  31.2860190  14.8192610
  53.1324840  32.1843640  15.0860040  52.1504080  31.0547270  15.3125560
  39.7335500  46.9673360  15.2585230  39.2083120  47.3481390  14.5547190
  39.6580080  47.5924130  15.9794940  41.1225970  32.6320960  13.8568920
  41.6518730  31.8450760  13.7276870  41.7554290  33.3112150  14.0904450
  43.3163810  32.3696100  16.9114310  42.6866550  31.6683410  17.0784440
  42.7768950  33.1300230  16.6947470  46.2555760  48.9835330  29.5824920
  47.1823070  48.7479600  29.6260880  46.2406190  49.8107330  29.1010950
  54.4900820  48.5260900  16.5799170  54.6653010  47.8398640  15.9360090
  53.7922390  49.0507950  16.1875840  43.4419370  31.6480080  29.3466800
  43.1603640  32.1513680  28.5827620  43.8239070  30.8501830  28.9808930
  42.3328470  48.9155740  14.1334480  43.0647290  48.6315020  13.5858370
  42.5922140  48.6769020  15.0233860  41.4943260  45.0320470  14.1380810
  40.8652140  45.5005570  14.6866640  41.6091090  44.1869690  14.5727000
  50.0434830  31.0633660  29.9247270  49.9300280  31.3828270  30.8198790
  50.8604570  31.4646170  29.6284550  52.8233320  48.2105190  29.4065960
  53.6158640  47.7154420  29.1991920  53.1166470  48.8895330  30.0141570
  47.0811020  40.8605150   2.1691280  46.3053120  40.3805590   2.4589850
  47.7323950  40.1810800   1.9947440  41.0976850  41.1724960   3.0467040
  40.2661730  40.9173670   3.4463550  41.7057830  41.2435730   3.7824960
  41.0778110  45.2065050   3.2425060  41.3806150  44.3162790   3.0635280
  41.8221700  45.7635270   3.0147310  37.4701810  38.7332500   2.7149130
  38.0417920  37.9654700   2.7152770  37.4703350  39.0321260   1.8055740
  46.5220010  43.5362340   2.1761440  46.4528290  42.5952280   2.0150570
  47.2839870  43.6263750   2.7484010  38.7126680  34.1416860   4.5018060
  38.5329520  33.2442610   4.7820820  38.3106760  34.6888730   5.1765010
  39.3313350  36.6377360   3.1100400  40.0123460  36.9015730   3.7287800
  39.0161400  35.7978230   3.4438410  43.5237920  37.6844720   2.1972990
  44.0316140  38.1825690   2.8378010  44.0551160  36.9079920   2.0212350
  55.6248850  35.8549910   5.9002340  54.9201020  36.2431620   5.3817450
  55.8906770  36.5500200   6.5023270  41.8074020  32.3243280   6.4636410
  41.8092460  32.8415670   5.6582310  40.9778330  31.8473460   6.4406340
  43.0576870  41.9638460   4.6409910  42.7246250  42.5907380   5.2830980
  43.2343550  42.4900340   3.8611580  51.5710780  35.7783540   2.1086250
  50.8666350  36.0668430   2.6889360  51.9322940  36.5883650   1.7485810
  41.4889350  34.0353240   4.4706860  41.8306160  34.8795290   4.1760730
  40.5505160  34.1836980   4.5872200  42.2695970  43.9319260   6.4559090
  42.8869970  44.6070340   6.1743540  41.4089090  44.3407240   6.3646590
  53.1873560  45.3958670   4.3713730  52.5037080  46.0657780   4.3630400
  53.7267850  45.5939320   3.6058590  54.6397700  35.2238330   2.4995460
  53.6922610  35.2577310   2.6310890  54.9647690  36.0377280   2.8844820
  50.7232300  47.2402800   3.0858910  50.7359460  46.8365090   2.2181170
  50.1707520  48.0150090   2.9820340  50.1217740  42.1432640   4.4141520
  50.5386530  41.9292750   3.5794980  50.8457560  42.4005430   4.9850140
  54.0679840  40.5419860   4.5057760  53.2398470  40.6112950   4.0307890
  54.6630320  41.1274170   4.0373590  51.0321850  37.3289180   5.4512630
  50.6193030  38.1542890   5.7052620  50.2997800  36.7434220   5.2588990
  43.6336340  43.8016640   2.4770510  43.3364630  43.1962110   1.7978290
  44.5836160  43.8393950   2.3659870  41.8783260  36.8892290   4.0930340
  42.4297850  36.9987630   3.3183590  42.3926770  37.2629890   4.8085570
  51.7221950  47.3748510   6.1393610  51.2452510  48.1820700   5.9466220
  51.0383740  46.7226840   6.2919820  42.7254770  43.5398330   9.1278310
  41.8283300  43.7638300   9.3751710  42.7507640  43.6633270   8.1789710
  41.5525990  40.4111650   7.7035680  41.4133760  41.2834450   8.0723080
  40.6707350  40.0684460   7.5583620  43.3506340  46.3533350   9.9120830
  43.3221770  46.7576300   9.0449260  43.1871310  45.4243710   9.7492430
  55.3021160  47.1360450  11.2085000  55.7780880  47.6143340  11.8874080
  55.9228320  47.0677940  10.4830500  37.5044640  42.1809200   3.6206590
  37.5825060  42.3157970   2.6762310  38.1186320  41.4725090   3.8134710
  54.7054410  44.3273300   8.3685010  54.8317470  44.0885180   7.4502190
  54.7475790  43.4957840   8.8407090  48.5671150  48.0301300   6.9379820
  49.0815820  47.9409310   7.7402250  47.7240230  48.3761000   7.2307730
  54.5578420  36.3805760   9.3334750  53.9422690  36.8885430   8.8050210
  54.2374840  35.4804090   9.2760690  37.5604160  43.2223370   6.1601050
  37.7235200  42.7528730   5.3420420  38.0256610  42.7146930   6.8249890
  46.6192740  35.2197650   6.7996940  46.1572110  35.4280670   7.6116880
  46.2170850  34.4057000   6.4967610  51.6197250  36.4406600   7.9293600
  50.7690840  36.1412350   8.2502670  51.4599040  36.6848610   7.0177420
  48.7146960  37.9408350  10.0292390  49.0400370  37.1072100   9.6894620
  49.5027290  38.4636870  10.1770720  44.3698830  32.8976460   3.0551220
  44.6671160  33.8039290   2.9743240  44.9184390  32.4095240   2.4410790
  44.5636360  38.3748280   9.5903140  44.4679960  37.4343010   9.4403540
  45.4068340  38.5963350   9.1951210  39.6946900  34.7861950   7.7436920
  39.3010290  35.6337160   7.9509700  39.0065300  34.1488320   7.9345560
  46.2691950  34.8696920  10.8133660  45.5790270  34.6769120  11.4479750
  47.0124250  35.1531560  11.3457960  36.9963950  32.7090410   1.7767000
  36.7077000  33.2793270   2.4891980  37.7409710  32.2294860   2.1398230
  48.5454920  38.7095360   3.6487580  47.8136040  39.2182170   3.9977680
  48.1479260  37.8925340   3.3476360  49.0080830  34.1629040   3.0610520
  49.0253570  34.6137690   3.9052370  48.7596410  33.2634680   3.2743960
  52.4351580  31.5761220   8.8996900  52.7597350  30.8450880   9.4254880
  52.4708090  31.2574860   7.9977890  39.1343140  42.5974800   8.3196860
  38.7497930  41.9568470   8.9179820  39.4455330  43.3010920   8.8891590
  45.2840280  39.4451340   3.8005480  45.6510410  38.9709910   4.5466820
  45.0945340  40.3192910   4.1413820  43.0739650  38.4859980   6.1189690
  42.7696720  39.3651960   6.3440050  44.0286110  38.5459770   6.1547130
  52.3609420  41.6886330   2.5082930  53.0808540  42.1841620   2.1179040
  52.1591240  41.0104220   1.8636800  47.7428220  41.7595390   8.3951930
  47.6765530  40.8391060   8.1409520  47.1133360  41.8570830   9.1096570
  39.1303380  39.3262720   7.2661050  38.7718320  39.9916570   7.8534390
  38.8357940  38.4946270   7.6373670  42.3316500  39.7846960  10.1500600
  42.0316640  39.9304140   9.2528420  43.1027740  39.2252250  10.0573990
  47.6744950  44.5815960   8.1455730  47.6889490  43.6496920   7.9274640
  46.9670050  44.6675720   8.7845500  53.8856160  41.2223300   7.4924310
  53.1604350  41.8152080   7.2953700  54.4131620  41.2146840   6.6937680
  47.1078850  46.2233530   5.2396230  47.7521070  46.4292910   5.9169650
  47.4708290  45.4621930   4.7867080  48.3810930  44.2265880   3.9573680
  49.0233160  43.5259040   4.0705850  48.9060280  45.0064320   3.7770570
  50.1548550  45.0260780   7.1609740  50.4904790  45.6127470   7.8387660
  49.2348890  44.8953490   7.3907530  37.7051950  32.8155960   7.9433150
  36.9910470  33.0152880   8.5485760  38.1246990  32.0395530   8.3147950
  37.9924540  46.8036220   8.9299680  38.1015660  45.8630960   8.7895070
  37.3405100  47.0690970   8.2813410  45.9837130  45.0752110  10.3297800
  45.6634000  44.3561350  10.8743490  45.3095490  45.7507180  10.4033860
  49.1990730  35.3078270   5.6934600  49.5671550  34.4873480   6.0214170
  48.3388930  35.3680160   6.1090250  46.1592720  37.9617860   5.9172570
  46.6577970  38.4363680   6.5824420  46.3015670  37.0381380   6.1242600
  53.3659580  34.1785820   6.7600960  52.8633180  34.9191220   7.0994770
  54.1816240  34.5669820   6.4437750  40.1382980  47.8705130  10.7419290
  40.9395710  48.1917180  11.1554690  39.6234800  47.5100710  11.4639200
  48.9747610  43.9785000  10.6894700  48.3685770  44.0016600   9.9490450
  48.6701720  43.2468040  11.2261950  50.4047980  47.7065290   9.3004110
  51.3569730  47.6223310   9.2504350  50.2576200  48.3707000   9.9737900
  37.8580790  40.3578590   9.6855340  38.3619810  39.7785870  10.2571570
  37.1188210  40.6418820  10.2231710  44.9118730  41.7649580   9.2190860
  44.1464400  42.3334580   9.1345530  45.0934690  41.4725790   8.3259090
  52.0542080  43.4954910   9.7765880  52.7951550  43.8330670   9.2733340
  51.2914760  43.6646970   9.2235650  39.8903870  38.5008180  10.5805410
  39.9309210  38.2022050  11.4890640  40.7449370  38.9015790  10.4212930
  41.8309680  37.0800280   8.5479900  41.3006140  36.5891230   7.9203240
  42.4997750  37.5084480   8.0137830  50.7287740  41.5469740   8.3121090
  51.1428760  41.7014820   9.1611510  49.7938740  41.6724960   8.4746870
  51.2009910  38.8865900  10.3160240  51.7830680  38.1318220  10.2280720
  51.3771680  39.4173340   9.5391720  42.3181980  34.0462650   8.6277190
  42.2238850  33.4283400   7.9028060  41.7379370  34.7728940   8.4007100
  45.0843420  32.6035890   5.6604580  44.6360720  32.6260150   4.8150130
  44.4508620  32.2054910   6.2574880  45.4902970  41.4990220   6.2817020
  45.9091080  42.3422950   6.1093260  44.5711600  41.6362260   6.0523800
  47.8266870  39.2306400   7.6654860  47.9463080  38.6347540   8.4049700
  48.6860870  39.2676090   7.2456160  50.1654770  39.7843590   6.2417370
  49.6389990  40.3086210   5.6382510  50.5086110  40.4170980   6.8727100
  43.3410390  47.8043230   7.3974750  42.8031480  48.5289290   7.0783450
  43.5944350  47.3273570   6.6072090  44.5935640  35.7727750   8.9230680
  45.1835330  35.4643600   9.6108500  43.7755880  35.3007500   9.0790580
  49.4129070  35.3893560   9.1563700  48.7244590  34.7275100   9.0913690
  50.1335090  34.9431830   9.6012160  46.1972600  49.0394440   7.6561400
  46.1231300  49.9429580   7.9633770  45.2951440  48.7206340   7.6283470
  38.0890100  47.2339620   3.6976650  37.6521090  47.4140420   4.5300800
  38.6567780  47.9914240   3.5558370  53.7252280  46.7356620   7.9853960
  53.1254270  46.7949180   7.2417880  53.8546180  45.7961600   8.1150810
  52.4103920  43.4608600   6.0830120  51.5963760  43.8905760   6.3455910
  52.8178120  44.0727010   5.4699170  38.9590460  40.1312420   4.5968870
  39.3263500  40.0439820   5.4764890  38.3901280  39.3678970   4.4975730
  53.7594320  38.5996800   7.6099340  53.5280410  38.3709550   6.7097290
  54.0198870  39.5196350   7.5644230  38.5106460  37.0421510   8.5027290
  37.6162510  37.0088270   8.8421000  39.0504010  37.2408300   9.2678540
  52.1982390  33.8253230  10.3879040  53.0752570  33.8336630  10.7713040
  52.2103230  33.0884070   9.7771390  53.8235380  37.7622640   4.7986610
  52.8738090  37.7286180   4.9131600  54.0048390  38.6722750   4.5636380
  39.0146170  31.3169840   2.8510510  39.6622360  30.7667220   2.4105670
  39.4348010  31.5712990   3.6726320  52.9098510  31.5111200   6.2080150
  53.5470730  32.1245340   6.5739340  53.0573400  31.5471860   5.2629380
  38.7678170  31.4725510   5.5935830  38.4192990  31.9289330   6.3594010
  38.4365870  30.5782640   5.6758260  40.3742540  44.6445110   9.7589020
  40.3312170  44.2738020  10.6403480  40.5053550  45.5822680   9.8990840
  44.0748570  46.2004700   5.3598740  43.8339930  46.4679260   4.4729260
  45.0151210  46.3710430   5.4149600  46.2802990  32.6637390   9.1155250
  46.2191880  33.2559220   9.8650660  47.2203370  32.5563350   8.9705510
  48.9177550  32.3207450   8.7547540  49.5317960  32.6386740   8.0928620
  49.4627110  31.8356040   9.3743400  55.3352730  48.2199080   6.1609380
  54.8411010  48.6167950   5.4436510  54.7266020  47.5948290   6.5546660
  39.4398810  31.0001710   8.8686600  39.9881800  30.8189760   8.1052710
  39.5054120  30.2095820   9.4042910  40.2130570  47.5907360   6.8786800
  39.6190890  47.4592060   7.6176840  40.2054410  46.7545500   6.4128900
  49.6585590  30.8839590   5.0816830  48.7845430  31.2174700   4.8789760
  49.5496340  30.4112770   5.9068700  50.5657570  33.0910460   6.4658550
  50.2370930  32.2762220   6.0860280  51.5139870  33.0480270   6.3424240
  53.0192180  48.8622500   3.4396120  52.5595150  49.6138310   3.0654140
  52.3904640  48.1428970   3.3810920  39.8442800  44.9565740   5.8294840
  39.1176860  44.3371030   5.7620790  39.9051950  45.3506350   4.9592920
  43.4487900  47.1710740   2.6144250  43.9652920  46.5598100   2.0892510
  44.0985280  47.6739520   3.1055260  46.1883400  48.0619230   3.4413230
  46.4761210  47.8073530   2.5646240  46.7006620  47.5096590   4.0318800
  47.4060410  31.8009430   4.0209740  46.6232200  32.2754930   4.3006500
  47.1123340  30.8964260   3.9122920  46.2555760  48.9835330  10.8081430
  47.1823070  48.7479600  10.8517390  46.2406190  49.8107330  10.3267460
  43.4419370  31.6480080  10.5723310  43.1603640  32.1513680   9.8084130
  43.8239070  30.8501830  10.2065440  50.0434830  31.0633660  11.1503780
  49.9300280  31.3828270  12.0455300  50.8604570  31.4646170  10.8541060
  52.8233320  48.2105190  10.6322470  53.6158640  47.7154420  10.4248430
  53.1166470  48.8895330  11.2398080  48.9492980  20.3082640  94.1599460
  48.8687030  19.3937250  93.8891170  48.5357400  20.8049710  93.4539170
  51.1018450  26.4921850  94.8207860  50.6399980  25.7209090  95.1495030
  51.9144000  26.5187920  95.3260310  39.5068800  17.3583360  90.7026880
  38.6185500  17.6999330  90.6006760  39.7909990  17.1583680  89.8107710
  47.3281760  28.7779860  94.4411850  46.7093200  29.2337360  93.8706290
  48.1833540  28.9331320  94.0401550  41.6830190  15.9414860  91.7365260
  41.7896940  16.8418590  92.0434020  40.7722550  15.8932830  91.4459910
  51.3349300  15.0639670  93.2076160  52.1558920  14.5736240  93.2501640
  51.3683380  15.6537330  93.9608000  48.1945110  23.6619100  91.8343760
  47.5762380  24.1268550  91.2706480  48.7068360  24.3546580  92.2513270
  37.5628310  24.3475630  89.2083390  37.1856290  24.8362730  88.4768290
  37.8201380  25.0200910  89.8389920  45.1717240  12.7492020  94.6668900
  45.4792220  12.1938910  93.9504400  44.2417940  12.8836480  94.4841890
  52.0177720  25.1875530  92.0466530  51.9074050  24.2449860  92.1715950
  52.0145970  25.5491170  92.9329290  47.5598000  20.8140850  91.4029020
  46.6327280  20.7478230  91.6317490  47.7122820  21.7520980  91.2884260
  47.5467080  17.0857850  88.3996180  46.6070750  17.2471810  88.4848640
  47.8650340  17.8043530  87.8532170  51.5895290  22.3761150  91.9064270
  50.9707710  22.0380700  91.2590570  51.5719740  21.7320910  92.6143460
  43.1654640  21.3405590  94.1848750  42.7611640  20.6282840  93.6894650
  43.2517760  20.9958830  95.0736790  49.7659990  21.6147960  88.9137020
  50.2053270  20.7770390  88.7674840  50.4788410  22.2477360  89.0001160
  47.8755370  26.5544030  92.8818260  48.3151280  27.2968360  92.4673650
  47.8142260  26.7970600  93.8057220  53.3477130  12.8690770  87.2278060
  53.0349790  12.9617600  88.1277130  54.1089600  13.4471800  87.1775490
  39.8659270  20.2350570  91.6855400  39.7456870  20.9612660  91.0736670
  39.5560160  19.4653480  91.2083310  38.7492270  25.1065900  93.9030220
  38.3420350  25.2480490  93.0483820  39.6405280  24.8226060  93.7001430
  50.5425550  29.5413150  90.2381270  50.3826690  29.2516090  91.1363100
  50.3772260  28.7653280  89.7026500  43.0213930  29.3211680  92.0152890
  42.8456410  28.4047220  91.8020690  42.1669670  29.6798970  92.2550690
  50.2451680  27.0500710  88.7979270  49.5516840  27.0478000  88.1381550
  50.9874540  26.6260030  88.3673440  49.8101610  28.6763420  92.8727760
  50.2658560  27.8952800  93.1866380  50.1494130  29.3870240  93.4168940
  42.3322930  13.5785640  95.0679070  41.8891080  14.3595180  94.7363590
  42.8907920  13.9015530  95.7750010  45.4481750  13.1996340  89.9484900
  44.8235930  13.1956210  90.6738210  45.3611870  12.3327300  89.5520870
  42.1237150  18.7019210  92.7960320  41.8978070  18.4856380  93.7006940
  41.3429680  19.1347670  92.4506290  49.3534910  18.7082580  91.3950970
  48.7543800  19.4318380  91.2114590  49.9014520  18.6459360  90.6127420
  47.9599780  17.3446120  93.4254250  48.3529350  17.6618320  92.6122940
  48.3216630  16.4658000  93.5398770  37.1834180  17.8767040  86.8587170
  37.1008850  18.8197800  87.0002160  36.8317240  17.7341950  85.9799520
  44.9832310  16.6106070  95.9257520  44.9868370  16.1696020  95.0762060
  45.8783430  16.9323400  96.0329340  40.8334690  16.4932560  94.8851730
  40.4934740  16.9707790  95.6418780  40.0712010  16.0397680  94.5252830
  45.0452460  17.6118150  88.9164280  45.1665280  17.5704630  89.8650100
  44.6600970  18.4742300  88.7611010  44.0573960  19.9219290  88.3147580
  43.4890860  19.4737540  87.6883490  44.7662960  20.2812070  87.7812730
  38.1480770  15.4151540  93.8016400  37.8627690  15.0507210  94.6395020
  38.0859630  14.6832000  93.1879540  41.6021440  23.9177480  90.5873990
  40.8283700  23.3775100  90.4272710  42.3316070  23.3984090  90.2491750
  47.8219360  14.3080800  90.5229770  47.0083970  13.8093970  90.4475080
  47.6281310  15.1479050  90.1066120  50.5367750  18.6800450  88.8191930
  51.4247370  18.9917680  88.6443270  50.5072840  17.8072700  88.4272510
  41.6458840  23.5857860  94.2252800  42.1637510  22.7826120  94.1709690
  41.1942860  23.5237000  95.0669630  46.5328340  24.8524140  89.4980100
  46.8744040  25.5966370  89.0023420  45.7041050  25.1655260  89.8604930
  52.8082020  19.9912290  88.2871790  52.7245740  20.4226510  87.4368230
  53.5276210  20.4510640  88.7198610  53.8369270  26.8454550  91.0153920
  53.1945430  26.1910170  91.2897640  53.4499930  27.2509640  90.2394590
  49.4155750  24.1739980  94.8625610  49.7679570  23.5768110  94.2026980
  48.5318080  23.8484210  95.0333860  45.5019030  24.9337670  92.2696020
  46.1890160  25.4806880  92.6503610  44.7151450  25.4778400  92.3045630
  37.6411430  20.5510490  87.7613100  38.5106280  20.8335290  88.0449020
  37.1501750  21.3646360  87.6461910  44.8046240  21.9383700  91.8821380
  45.2609020  22.7488950  92.1081570  44.4534450  21.6206840  92.7139870
  40.7058020  12.2821350  92.3543900  40.5772650  12.2739250  93.3028820
  39.8820040  12.6204440  92.0034910  52.2266650  25.7371010  87.5530270
  52.0004230  25.0201450  88.1454910  51.8362850  25.4883450  86.7152020
  38.0082680  29.7637870  88.3274730  38.3680320  30.3627210  87.6732000
  37.8675020  30.3097760  89.1009760  51.8082900  23.6542950  89.2144430
  51.5204600  24.1155640  90.0022310  52.6035070  23.1940720  89.4828650
  44.0251300  27.1469070  89.1448400  44.0161400  27.8798760  88.5292910
  43.1049660  26.9000650  89.2375360  39.6257940  22.3683960  89.8895160
  39.0185890  23.1082860  89.8990460  40.1007290  22.4583320  89.0633360
  52.5652760  15.4891720  90.3739610  51.9365920  15.5937390  89.6597840
  52.0704680  15.7088500  91.1633490  47.0110900  27.2097310  87.8073590
  47.1122880  27.0061300  86.8775570  46.1112640  26.9555590  88.0121370
  44.5336790  17.7677670  91.7897490  43.8252940  18.2364010  92.2311100
  44.8181270  17.1099680  92.4242680  48.5652220  14.4928330  93.2293280
  48.4420000  14.5114460  92.2802790  49.5136780  14.5407270  93.3491680
  45.6529010  29.7283630  92.5021260  45.9070510  29.6905020  91.5800630
  44.7041490  29.6016960  92.4949510  42.7371810  16.0762750  89.1648200
  43.5862340  16.5132900  89.0988390  42.3703080  16.3883010  89.9920260
  51.6581590  20.6475510  94.0779770  50.7171730  20.6625740  94.2527460
  51.9725660  19.8611470  94.5240070  41.6363230  22.3295110  87.6383730
  42.4026500  22.2176470  88.2009160  41.7137920  21.6333080  86.9860500
  40.3309990  19.7620180  88.3216620  40.4113580  18.8147690  88.4334020
  41.2229740  20.0927060  88.4277280  41.1324700  29.9115570  95.4251160
  41.8687180  29.3631030  95.6959730  41.5165620  30.7771580  95.2857150
  38.0170180  25.9789140  91.2992670  37.0909960  26.2210280  91.2898080
  38.4826610  26.8063400  91.1777420  44.2427010  29.0845880  87.2476730
  45.0355620  29.3734710  86.7958520  43.7231360  28.6538050  86.5689210
  53.2957180  28.3116010  88.6713470  53.0098690  27.8981150  87.8567650
  53.0976730  29.2403720  88.5513990  44.7604410  24.3049290  87.1119080
  44.6555050  23.6901640  87.8380460  44.5928630  23.7815180  86.3282090
  48.0007140  23.3669320  87.7161070  47.4517240  23.8138620  88.3603810
  48.6226400  22.8618570  88.2398740  43.6682260  22.3260240  89.6126370
  44.0898680  22.1600110  90.4557760  43.7933100  21.5160470  89.1181510
  46.1809900  21.3497850  86.8603470  46.7015560  20.6346870  86.4944620
  46.8278300  21.9883720  87.1603980  42.5641160  18.3993470  86.5584530
  42.3630220  17.5360830  86.9197870  42.3933210  18.3126830  85.6206130
  50.0429470  13.2101700  89.0871410  50.3231760  12.3669600  89.4430830
  49.2695200  13.4424810  89.6010160  41.3623960  15.4994090  86.5462410
  41.6649860  15.5061520  85.6381560  42.1018550  15.1491950  87.0430070
  44.5808890  14.4428710  87.5318610  44.2330890  13.7652700  86.9521060
  44.7821660  13.9818220  88.3462000  46.7457930  29.4309460  89.1505210
  47.6408720  29.7694430  89.1723970  46.7775560  28.7088870  88.5229490
  40.3854090  24.8036510  87.3792210  40.8228960  25.3466180  88.0349790
  40.8701820  23.9783460  87.3888550  37.5999890  27.5925540  94.8312470
  37.9302900  26.7246600  94.5991110  38.0290890  27.7984060  95.6617430
  42.1961810  25.9234550  92.4914440  41.8957350  25.7999520  93.3918350
  42.0899300  25.0643140  92.0830170  54.9653730  25.7030950  87.1941120
  54.1346690  25.7707600  87.6648350  55.1425560  26.5935070  86.8907980
  54.4210190  22.4478430  89.6975320  55.1829100  23.0175080  89.8035010
  54.4364560  21.8805630  90.4683630  37.9214530  20.9716360  93.9282980
  37.2663370  20.7028000  93.2842680  38.7592480  20.8620840  93.4784960
  55.4270160  23.3028530  94.5417250  55.7978990  22.5195850  94.1353220
  56.0672090  23.9917630  94.3634550  54.4729360  22.7412800  86.8547840
  54.7478200  23.6491680  86.7267060  54.2840100  22.6775330  87.7909830
  50.8704970  15.7657650  88.1501470  51.2889850  15.5788630  87.3098130
  50.5641030  14.9136700  88.4604400  54.3694700  20.6781790  91.8477270
  53.9938300  19.9109720  91.4158560  53.6397820  21.0604490  92.3352200
  37.1352610  18.1815290  89.8708310  36.2316690  18.4445490  89.6959970
  37.6193230  18.4526460  89.0908270  53.6445660  18.9039280  95.1484510
  54.1683140  18.4101930  94.5174680  54.2305080  19.0389640  95.8932080
  39.6779820  17.2380830  87.7802690  40.3871520  16.8164050  87.2949970
  38.9619760  17.3056060  87.1486040  39.3253980  13.2920160  86.8205340
  40.0482110  13.8329100  87.1386560  39.5978500  13.0183580  85.9446880
  53.1345630  18.1612630  91.0876920  53.6304750  17.9283500  91.8725800
  52.9361700  17.3224470  90.6714560  54.5632790  16.7973580  93.6214600
  54.4532070  16.6429620  94.5596870  55.3240380  16.2694520  93.3790010
  55.4523060  14.6281500  86.8620740  56.3772370  14.4962680  86.6539030
  55.4298850  14.7074320  87.8157190  55.5261550  15.3992160  89.4877450
  54.7313050  15.3337280  90.0170360  55.7304830  16.3342800  89.4762800
  52.4679970  29.4383710  93.4815840  53.0639040  29.1168280  92.8050260
  52.7258120  28.9655530  94.2729110  51.9581480  13.7289040  95.9376280
  52.3989570  13.6734140  95.0897880  51.6889070  14.6447050  96.0086460
  53.8220050  13.3604280  93.9485100  53.7608450  12.4165500  93.8016120
  54.6012080  13.4684370  94.4938560  38.1272800  29.4996640  92.9109050
  37.9594840  28.8667320  93.6090940  37.2607310  29.7056040  92.5603240
  38.7500820  13.3313420  90.4140910  39.5080180  13.4442300  89.8404940
  38.2877990  14.1682620  90.3684340  45.2914630  15.4452690  93.4043220
  44.4789140  15.0709580  93.0639100  45.7956270  14.6897770  93.7064410
  49.7939610  12.1095140  94.6426290  50.3968980  12.6815350  95.1174810
  49.0532600  12.6734580  94.4200190  52.9374210  12.5116700  89.9166570
  53.1324840  13.4100150  90.1834000  52.1504080  12.2803780  90.4099520
  39.7335500  28.1929870  90.3559190  39.2083120  28.5737900  89.6521150
  39.6580080  28.8180640  91.0768900  41.1225970  13.8577470  88.9542880
  41.6518730  13.0707270  88.8250830  41.7554290  14.5368660  89.1878410
  43.3163810  13.5952610  92.0088270  42.6866550  12.8939920  92.1758400
  42.7768950  14.3556740  91.7921430  54.4900820  29.7517410  91.6773130
  54.6653010  29.0655150  91.0334050  53.7922390  30.2764460  91.2849800
  42.3328470  30.1412250  89.2308440  43.0647290  29.8571530  88.6832330
  42.5922140  29.9025530  90.1207820  41.4943260  26.2576980  89.2354770
  40.8652140  26.7262080  89.7840600  41.6091090  25.4126200  89.6700960
  48.9492980  20.3082640  75.3855970  48.8687030  19.3937250  75.1147680
  48.5357400  20.8049710  74.6795680  47.0811020  22.0861660  77.2665240
  46.3053120  21.6062100  77.5563810  47.7323950  21.4067310  77.0921400
  41.0976850  22.3981470  78.1441000  40.2661730  22.1430180  78.5437510
  41.7057830  22.4692240  78.8798920  51.1018450  26.4921850  76.0464370
  50.6399980  25.7209090  76.3751540  51.9144000  26.5187920  76.5516820
  41.0778110  26.4321560  78.3399020  41.3806150  25.5419300  78.1609240
  41.8221700  26.9891780  78.1121270  39.5068800  17.3583360  71.9283390
  38.6185500  17.6999330  71.8263270  39.7909990  17.1583680  71.0364220
  37.4701810  19.9589010  77.8123090  38.0417920  19.1911210  77.8126730
  37.4703350  20.2577770  76.9029700  47.3281760  28.7779860  75.6668360
  46.7093200  29.2337360  75.0962800  48.1833540  28.9331320  75.2658060
  46.5220010  24.7618850  77.2735400  46.4528290  23.8208790  77.1124530
  47.2839870  24.8520260  77.8457970  38.7126680  15.3673370  79.5992020
  38.5329520  14.4699120  79.8794780  38.3106760  15.9145240  80.2738970
  47.5525180  17.5689230  77.5004330  47.9290000  16.6961110  77.3878000
  47.4544690  17.9047930  76.6094770  41.6830190  15.9414860  72.9621770
  41.7896940  16.8418590  73.2690530  40.7722550  15.8932830  72.6716420
  51.3349300  15.0639670  74.4332670  52.1558920  14.5736240  74.4758150
  51.3683380  15.6537330  75.1864510  39.3313350  17.8633870  78.2074360
  40.0123460  18.1272240  78.8261760  39.0161400  17.0234740  78.5412370
  43.5237920  18.9101230  77.2946950  44.0316140  19.4082200  77.9351970
  44.0551160  18.1336430  77.1186310  55.6248850  17.0806420  80.9976300
  54.9201020  17.4688130  80.4791410  55.8906770  17.7756710  81.5997230
  41.8074020  13.5499790  81.5610370  41.8092460  14.0672180  80.7556270
  40.9778330  13.0729970  81.5380300  48.1945110  23.6619100  73.0600270
  47.5762380  24.1268550  72.4962990  48.7068360  24.3546580  73.4769780
  43.0576870  23.1894970  79.7383870  42.7246250  23.8163890  80.3804940
  43.2343550  23.7156850  78.9585540  51.5710780  17.0040050  77.2060210
  50.8666350  17.2924940  77.7863320  51.9322940  17.8140160  76.8459770
  41.4889350  15.2609750  79.5680820  41.8306160  16.1051800  79.2734690
  40.5505160  15.4093490  79.6846160  42.2695970  25.1575770  81.5533050
  42.8869970  25.8326850  81.2717500  41.4089090  25.5663750  81.4620550
  37.5628310  24.3475630  70.4339900  37.1856290  24.8362730  69.7024800
  37.8201380  25.0200910  71.0646430  53.1873560  26.6215180  79.4687690
  52.5037080  27.2914290  79.4604360  53.7267850  26.8195830  78.7032550
  54.6397700  16.4494840  77.5969420  53.6922610  16.4833820  77.7284850
  54.9647690  17.2633790  77.9818780  45.1717240  12.7492020  75.8925410
  45.4792220  12.1938910  75.1760910  44.2417940  12.8836480  75.7098400
  50.7232300  28.4659310  78.1832870  50.7359460  28.0621600  77.3155130
  50.1707520  29.2406600  78.0794300  52.0177720  25.1875530  73.2723040
  51.9074050  24.2449860  73.3972460  52.0145970  25.5491170  74.1585800
  50.1217740  23.3689150  79.5115480  50.5386530  23.1549260  78.6768940
  50.8457560  23.6261940  80.0824100  47.5598000  20.8140850  72.6285530
  46.6327280  20.7478230  72.8574000  47.7122820  21.7520980  72.5140770
  47.5467080  17.0857850  69.6252690  46.6070750  17.2471810  69.7105150
  47.8650340  17.8043530  69.0788680  54.0679840  21.7676370  79.6031720
  53.2398470  21.8369460  79.1281850  54.6630320  22.3530680  79.1347550
  51.5895290  22.3761150  73.1320780  50.9707710  22.0380700  72.4847080
  51.5719740  21.7320910  73.8399970  51.0321850  18.5545690  80.5486590
  50.6193030  19.3799400  80.8026580  50.2997800  17.9690730  80.3562950
  43.1654640  21.3405590  75.4105260  42.7611640  20.6282840  74.9151160
  43.2517760  20.9958830  76.2993300  43.6336340  25.0273150  77.5744470
  43.3364630  24.4218620  76.8952250  44.5836160  25.0650460  77.4633830
  41.8783260  18.1148800  79.1904300  42.4297850  18.2244140  78.4157550
  42.3926770  18.4886400  79.9059530  51.7221950  28.6005020  81.2367570
  51.2452510  29.4077210  81.0440180  51.0383740  27.9483350  81.3893780
  42.7254770  24.7654840  84.2252270  41.8283300  24.9894810  84.4725670
  42.7507640  24.8889780  83.2763670  49.7659990  21.6147960  70.1393530
  50.2053270  20.7770390  69.9931350  50.4788410  22.2477360  70.2257670
  41.5525990  21.6368160  82.8009640  41.4133760  22.5090960  83.1697040
  40.6707350  21.2940970  82.6557580  47.8755370  26.5544030  74.1074770
  48.3151280  27.2968360  73.6930160  47.8142260  26.7970600  75.0313730
  43.3506340  27.5789860  85.0094790  43.3221770  27.9832810  84.1423220
  43.1871310  26.6500220  84.8466390  53.3477130  12.8690770  68.4534570
  53.0349790  12.9617600  69.3533640  54.1089600  13.4471800  68.4032000
  39.8659270  20.2350570  72.9111910  39.7456870  20.9612660  72.2993180
  39.5560160  19.4653480  72.4339820  55.3021160  28.3616960  86.3058960
  55.7780880  28.8399850  86.9848040  55.9228320  28.2934450  85.5804460
  37.5044640  23.4065710  78.7180550  37.5825060  23.5414480  77.7736270
  38.1186320  22.6981600  78.9108670  38.7492270  25.1065900  75.1286730
  38.3420350  25.2480490  74.2740330  39.6405280  24.8226060  74.9257940
  54.7054410  25.5529810  83.4658970  54.8317470  25.3141690  82.5476150
  54.7475790  24.7214350  83.9381050  48.5671150  29.2557810  82.0353780
  49.0815820  29.1665820  82.8376210  47.7240230  29.6017510  82.3281690
  50.5425550  29.5413150  71.4637780  50.3826690  29.2516090  72.3619610
  50.3772260  28.7653280  70.9283010  43.0213930  29.3211680  73.2409400
  42.8456410  28.4047220  73.0277200  42.1669670  29.6798970  73.4807200
  50.2451680  27.0500710  70.0235780  49.5516840  27.0478000  69.3638060
  50.9874540  26.6260030  69.5929950  49.8101610  28.6763420  74.0984270
  50.2658560  27.8952800  74.4122890  50.1494130  29.3870240  74.6425450
  54.5578420  17.6062270  84.4308710  53.9422690  18.1141940  83.9024170
  54.2374840  16.7060600  84.3734650  37.5604160  24.4479880  81.2575010
  37.7235200  23.9785240  80.4394380  38.0256610  23.9403440  81.9223850
  42.3322930  13.5785640  76.2935580  41.8891080  14.3595180  75.9620100
  42.8907920  13.9015530  77.0006520  46.6192740  16.4454160  81.8970900
  46.1572110  16.6537180  82.7090840  46.2170850  15.6313510  81.5941570
  51.6197250  17.6663110  83.0267560  50.7690840  17.3668860  83.3476630
  51.4599040  17.9105120  82.1151380  48.7146960  19.1664860  85.1266350
  49.0400370  18.3328610  84.7868580  49.5027290  19.6893380  85.2744680
  45.4481750  13.1996340  71.1741410  44.8235930  13.1956210  71.8994720
  45.3611870  12.3327300  70.7777380  44.3698830  14.1232970  78.1525180
  44.6671160  15.0295800  78.0717200  44.9184390  13.6351750  77.5384750
  42.1237150  18.7019210  74.0216830  41.8978070  18.4856380  74.9263450
  41.3429680  19.1347670  73.6762800  49.3534910  18.7082580  72.6207480
  48.7543800  19.4318380  72.4371100  49.9014520  18.6459360  71.8383930
  44.5636360  19.6004790  84.6877100  44.4679960  18.6599520  84.5377500
  45.4068340  19.8219860  84.2925170  47.9599780  17.3446120  74.6510760
  48.3529350  17.6618320  73.8379450  48.3216630  16.4658000  74.7655280
  39.6946900  16.0118460  82.8410880  39.3010290  16.8593670  83.0483660
  39.0065300  15.3744830  83.0319520  46.2691950  16.0953430  85.9107620
  45.5790270  15.9025630  86.5453710  47.0124250  16.3788070  86.4431920
  36.9963950  13.9346920  76.8740960  36.7077000  14.5049780  77.5865940
  37.7409710  13.4551370  77.2372190  37.1834180  17.8767040  68.0843680
  37.1008850  18.8197800  68.2258670  36.8317240  17.7341950  67.2056030
  48.5454920  19.9351870  78.7461540  47.8136040  20.4438680  79.0951640
  48.1479260  19.1181850  78.4450320  44.9832310  16.6106070  77.1514030
  44.9868370  16.1696020  76.3018570  45.8783430  16.9323400  77.2585850
  40.8334690  16.4932560  76.1108240  40.4934740  16.9707790  76.8675290
  40.0712010  16.0397680  75.7509340  45.0452460  17.6118150  70.1420790
  45.1665280  17.5704630  71.0906610  44.6600970  18.4742300  69.9867520
  49.0080830  15.3885550  78.1584480  49.0253570  15.8394200  79.0026330
  48.7596410  14.4891190  78.3717920  44.0573960  19.9219290  69.5404090
  43.4890860  19.4737540  68.9140000  44.7662960  20.2812070  69.0069240
  52.4351580  12.8017730  83.9970860  52.7597350  12.0707390  84.5228840
  52.4708090  12.4831370  83.0951850  39.1343140  23.8231310  83.4170820
  38.7497930  23.1824980  84.0153780  39.4455330  24.5267430  83.9865550
  45.2840280  20.6707850  78.8979440  45.6510410  20.1966420  79.6440780
  45.0945340  21.5449420  79.2387780  38.1480770  15.4151540  75.0272910
  37.8627690  15.0507210  75.8651530  38.0859630  14.6832000  74.4136050
  43.0739650  19.7116490  81.2163650  42.7696720  20.5908470  81.4414010
  44.0286110  19.7716280  81.2521090  41.6021440  23.9177480  71.8130500
  40.8283700  23.3775100  71.6529220  42.3316070  23.3984090  71.4748260
  52.3609420  22.9142840  77.6056890  53.0808540  23.4098130  77.2153000
  52.1591240  22.2360730  76.9610760  47.8219360  14.3080800  71.7486280
  47.0083970  13.8093970  71.6731590  47.6281310  15.1479050  71.3322630
  47.7428220  22.9851900  83.4925890  47.6765530  22.0647570  83.2383480
  47.1133360  23.0827340  84.2070530  50.5367750  18.6800450  70.0448440
  51.4247370  18.9917680  69.8699780  50.5072840  17.8072700  69.6529020
  41.6458840  23.5857860  75.4509310  42.1637510  22.7826120  75.3966200
  41.1942860  23.5237000  76.2926140  46.5328340  24.8524140  70.7236610
  46.8744040  25.5966370  70.2279930  45.7041050  25.1655260  71.0861440
  39.1303380  20.5519230  82.3635010  38.7718320  21.2173080  82.9508350
  38.8357940  19.7202780  82.7347630  42.3316500  21.0103470  85.2474560
  42.0316640  21.1560650  84.3502380  43.1027740  20.4508760  85.1547950
  47.6744950  25.8072470  83.2429690  47.6889490  24.8753430  83.0248600
  46.9670050  25.8932230  83.8819460  52.8082020  19.9912290  69.5128300
  52.7245740  20.4226510  68.6624740  53.5276210  20.4510640  69.9455120
  53.8856160  22.4479810  82.5898270  53.1604350  23.0408590  82.3927660
  54.4131620  22.4403350  81.7911640  53.8369270  26.8454550  72.2410430
  53.1945430  26.1910170  72.5154150  53.4499930  27.2509640  71.4651100
  49.4155750  24.1739980  76.0882120  49.7679570  23.5768110  75.4283490
  48.5318080  23.8484210  76.2590370  45.5019030  24.9337670  73.4952530
  46.1890160  25.4806880  73.8760120  44.7151450  25.4778400  73.5302140
  37.6411430  20.5510490  68.9869610  38.5106280  20.8335290  69.2705530
  37.1501750  21.3646360  68.8718420  44.8046240  21.9383700  73.1077890
  45.2609020  22.7488950  73.3338080  44.4534450  21.6206840  73.9396380
  47.1078850  27.4490040  80.3370190  47.7521070  27.6549420  81.0143610
  47.4708290  26.6878440  79.8841040  40.7058020  12.2821350  73.5800410
  40.5772650  12.2739250  74.5285330  39.8820040  12.6204440  73.2291420
  48.3810930  25.4522390  79.0547640  49.0233160  24.7515550  79.1679810
  48.9060280  26.2320830  78.8744530  52.2266650  25.7371010  68.7786780
  52.0004230  25.0201450  69.3711420  51.8362850  25.4883450  67.9408530
  50.1548550  26.2517290  82.2583700  50.4904790  26.8383980  82.9361620
  49.2348890  26.1210000  82.4881490  38.0082680  29.7637870  69.5531240
  38.3680320  30.3627210  68.8988510  37.8675020  30.3097760  70.3266270
  37.7051950  14.0412470  83.0407110  36.9910470  14.2409390  83.6459720
  38.1246990  13.2652040  83.4121910  51.8082900  23.6542950  70.4400940
  51.5204600  24.1155640  71.2278820  52.6035070  23.1940720  70.7085160
  37.9924540  28.0292730  84.0273640  38.1015660  27.0887470  83.8869030
  37.3405100  28.2947480  83.3787370  45.9837130  26.3008620  85.4271760
  45.6634000  25.5817860  85.9717450  45.3095490  26.9763690  85.5007820
  44.0251300  27.1469070  70.3704910  44.0161400  27.8798760  69.7549420
  43.1049660  26.9000650  70.4631870  39.6257940  22.3683960  71.1151670
  39.0185890  23.1082860  71.1246970  40.1007290  22.4583320  70.2889870
  49.1990730  16.5334780  80.7908560  49.5671550  15.7129990  81.1188130
  48.3388930  16.5936670  81.2064210  52.5652760  15.4891720  71.5996120
  51.9365920  15.5937390  70.8854350  52.0704680  15.7088500  72.3890000
  47.0110900  27.2097310  69.0330100  47.1122880  27.0061300  68.1032080
  46.1112640  26.9555590  69.2377880  44.5336790  17.7677670  73.0154000
  43.8252940  18.2364010  73.4567610  44.8181270  17.1099680  73.6499190
  46.1592720  19.1874370  81.0146530  46.6577970  19.6620190  81.6798380
  46.3015670  18.2637890  81.2216560  48.5652220  14.4928330  74.4549790
  48.4420000  14.5114460  73.5059300  49.5136780  14.5407270  74.5748190
  45.6529010  29.7283630  73.7277770  45.9070510  29.6905020  72.8057140
  44.7041490  29.6016960  73.7206020  42.7371810  16.0762750  70.3904710
  43.5862340  16.5132900  70.3244900  42.3703080  16.3883010  71.2176770
  53.3659580  15.4042330  81.8574920  52.8633180  16.1447730  82.1968730
  54.1816240  15.7926330  81.5411710  51.6581590  20.6475510  75.3036280
  50.7171730  20.6625740  75.4783970  51.9725660  19.8611470  75.7496580
  41.6363230  22.3295110  68.8640240  42.4026500  22.2176470  69.4265670
  41.7137920  21.6333080  68.2117010  40.3309990  19.7620180  69.5473130
  40.4113580  18.8147690  69.6590530  41.2229740  20.0927060  69.6533790
  53.6607170  27.8184360  76.9790540  53.7854590  28.6415530  77.4514350
  54.5272730  27.6075090  76.6314690  41.1324700  29.9115570  76.6507670
  41.8687180  29.3631030  76.9216240  41.5165620  30.7771580  76.5113660
  38.0170180  25.9789140  72.5249180  37.0909960  26.2210280  72.5154590
  38.4826610  26.8063400  72.4033930  40.1382980  29.0961640  85.8393250
  40.9395710  29.4173690  86.2528650  39.6234800  28.7357220  86.5613160
  44.2427010  29.0845880  68.4733240  45.0355620  29.3734710  68.0215030
  43.7231360  28.6538050  67.7945720  48.9747610  25.2041510  85.7868660
  48.3685770  25.2273110  85.0464410  48.6701720  24.4724550  86.3235910
  50.4047980  28.9321800  84.3978070  51.3569730  28.8479820  84.3478310
  50.2576200  29.5963510  85.0711860  53.2957180  28.3116010  69.8969980
  53.0098690  27.8981150  69.0824160  53.0976730  29.2403720  69.7770500
  37.8580790  21.5835100  84.7829300  38.3619810  21.0042380  85.3545530
  37.1188210  21.8675330  85.3205670  44.7604410  24.3049290  68.3375590
  44.6555050  23.6901640  69.0636970  44.5928630  23.7815180  67.5538600
  44.9118730  22.9906090  84.3164820  44.1464400  23.5591090  84.2319490
  45.0934690  22.6982300  83.4233050  48.0007140  23.3669320  68.9417580
  47.4517240  23.8138620  69.5860320  48.6226400  22.8618570  69.4655250
  52.0542080  24.7211420  84.8739840  52.7951550  25.0587180  84.3707300
  51.2914760  24.8903480  84.3209610  39.8903870  19.7264690  85.6779370
  39.9309210  19.4278560  86.5864600  40.7449370  20.1272300  85.5186890
  43.6682260  22.3260240  70.8382880  44.0898680  22.1600110  71.6814270
  43.7933100  21.5160470  70.3438020  41.8309680  18.3056790  83.6453860
  41.3006140  17.8147740  83.0177200  42.4997750  18.7340990  83.1111790
  46.1809900  21.3497850  68.0859980  46.7015560  20.6346870  67.7201130
  46.8278300  21.9883720  68.3860490  50.7287740  22.7726250  83.4095050
  51.1428760  22.9271330  84.2585470  49.7938740  22.8981470  83.5720830
  51.2009910  20.1122410  85.4134200  51.7830680  19.3574730  85.3254680
  51.3771680  20.6429850  84.6365680  42.3181980  15.2719160  83.7251150
  42.2238850  14.6539910  83.0002020  41.7379370  15.9985450  83.4981060
  45.0843420  13.8292400  80.7578540  44.6360720  13.8516660  79.9124090
  44.4508620  13.4311420  81.3548840  45.4902970  22.7246730  81.3790980
  45.9091080  23.5679460  81.2067220  44.5711600  22.8618770  81.1497760
  47.8266870  20.4562910  82.7628820  47.9463080  19.8604050  83.5023660
  48.6860870  20.4932600  82.3430120  50.1654770  21.0100100  81.3391330
  49.6389990  21.5342720  80.7356470  50.5086110  21.6427490  81.9701060
  42.5641160  18.3993470  67.7841040  42.3630220  17.5360830  68.1454380
  42.3933210  18.3126830  66.8462640  43.3410390  29.0299740  82.4948710
  42.8031480  29.7545800  82.1757410  43.5944350  28.5530080  81.7046050
  44.5935640  16.9984260  84.0204640  45.1835330  16.6900110  84.7082460
  43.7755880  16.5264010  84.1764540  49.4129070  16.6150070  84.2537660
  48.7244590  15.9531610  84.1887650  50.1335090  16.1688340  84.6986120
  50.0429470  13.2101700  70.3127920  50.3231760  12.3669600  70.6687340
  49.2695200  13.4424810  70.8266670  41.3623960  15.4994090  67.7718920
  41.6649860  15.5061520  66.8638070  42.1018550  15.1491950  68.2686580
  46.1972600  30.2650950  82.7535360  46.1231300  31.1686090  83.0607730
  45.2951440  29.9462850  82.7257430  44.5808890  14.4428710  68.7575120
  44.2330890  13.7652700  68.1777570  44.7821660  13.9818220  69.5718510
  46.7457930  29.4309460  70.3761720  47.6408720  29.7694430  70.3980480
  46.7775560  28.7088870  69.7486000  40.3854090  24.8036510  68.6048720
  40.8228960  25.3466180  69.2606300  40.8701820  23.9783460  68.6145060
  37.5999890  27.5925540  76.0568980  37.9302900  26.7246600  75.8247620
  38.0290890  27.7984060  76.8873940  42.1961810  25.9234550  73.7170950
  41.8957350  25.7999520  74.6174860  42.0899300  25.0643140  73.3086680
  38.0890100  28.4596130  78.7950610  37.6521090  28.6396930  79.6274760
  38.6567780  29.2170750  78.6532330  53.7252280  27.9613130  83.0827920
  53.1254270  28.0205690  82.3391840  53.8546180  27.0218110  83.2124770
  54.9653730  25.7030950  68.4197630  54.1346690  25.7707600  68.8904860
  55.1425560  26.5935070  68.1164490  54.4210190  22.4478430  70.9231830
  55.1829100  23.0175080  71.0291520  54.4364560  21.8805630  71.6940140
  37.9214530  20.9716360  75.1539490  37.2663370  20.7028000  74.5099190
  38.7592480  20.8620840  74.7041470  55.4270160  23.3028530  75.7673760
  55.7978990  22.5195850  75.3609730  56.0672090  23.9917630  75.5891060
  52.4103920  24.6865110  81.1804080  51.5963760  25.1162270  81.4429870
  52.8178120  25.2983520  80.5673130  54.4729360  22.7412800  68.0804350
  54.7478200  23.6491680  67.9523570  54.2840100  22.6775330  69.0166340
  50.8704970  15.7657650  69.3757980  51.2889850  15.5788630  68.5354640
  50.5641030  14.9136700  69.6860910  54.3694700  20.6781790  73.0733780
  53.9938300  19.9109720  72.6415070  53.6397820  21.0604490  73.5608710
  38.9590460  21.3568930  79.6942830  39.3263500  21.2696330  80.5738850
  38.3901280  20.5935480  79.5949690  53.7594320  19.8253310  82.7073300
  53.5280410  19.5966060  81.8071250  54.0198870  20.7452860  82.6618190
  38.5106460  18.2678020  83.6001250  37.6162510  18.2344780  83.9394960
  39.0504010  18.4664810  84.3652500  52.1982390  15.0509740  85.4853000
  53.0752570  15.0593140  85.8687000  52.2103230  14.3140580  84.8745350
  37.1352610  18.1815290  71.0964820  36.2316690  18.4445490  70.9216480
  37.6193230  18.4526460  70.3164780  53.6445660  18.9039280  76.3741020
  54.1683140  18.4101930  75.7431190  54.2305080  19.0389640  77.1188590
  53.8235380  18.9879150  79.8960570  52.8738090  18.9542690  80.0105560
  54.0048390  19.8979260  79.6610340  39.6779820  17.2380830  69.0059200
  40.3871520  16.8164050  68.5206480  38.9619760  17.3056060  68.3742550
  39.3253980  13.2920160  68.0461850  40.0482110  13.8329100  68.3643070
  39.5978500  13.0183580  67.1703390  53.1345630  18.1612630  72.3133430
  53.6304750  17.9283500  73.0982310  52.9361700  17.3224470  71.8971070
  39.0146170  12.5426350  77.9484470  39.6622360  11.9923730  77.5079630
  39.4348010  12.7969500  78.7700280  54.5632790  16.7973580  74.8471110
  54.4532070  16.6429620  75.7853380  55.3240380  16.2694520  74.6046520
  52.9098510  12.7367710  81.3054110  53.5470730  13.3501850  81.6713300
  53.0573400  12.7728370  80.3603340  55.4523060  14.6281500  68.0877250
  56.3772370  14.4962680  67.8795540  55.4298850  14.7074320  69.0413700
  55.5261550  15.3992160  70.7133960  54.7313050  15.3337280  71.2426870
  55.7304830  16.3342800  70.7019310  52.4679970  29.4383710  74.7072350
  53.0639040  29.1168280  74.0306770  52.7258120  28.9655530  75.4985620
  38.7678170  12.6982020  80.6909790  38.4192990  13.1545840  81.4567970
  38.4365870  11.8039150  80.7732220  40.3742540  25.8701620  84.8562980
  40.3312170  25.4994530  85.7377440  40.5053550  26.8079190  84.9964800
  44.0748570  27.4261210  80.4572700  43.8339930  27.6935770  79.5703220
  45.0151210  27.5966940  80.5123560  46.2802990  13.8893900  84.2129210
  46.2191880  14.4815730  84.9624620  47.2203370  13.7819860  84.0679470
  48.9177550  13.5463960  83.8521500  49.5317960  13.8643250  83.1902580
  49.4627110  13.0612550  84.4717360  55.3352730  29.4455590  81.2583340
  54.8411010  29.8424460  80.5410470  54.7266020  28.8204800  81.6520620
  39.4398810  12.2258220  83.9660560  39.9881800  12.0446270  83.2026670
  39.5054120  11.4352330  84.5016870  40.2130570  28.8163870  81.9760760
  39.6190890  28.6848570  82.7150800  40.2054410  27.9802010  81.5102860
  49.6585590  12.1096100  80.1790790  48.7845430  12.4431210  79.9763720
  49.5496340  11.6369280  81.0042660  50.5657570  14.3166970  81.5632510
  50.2370930  13.5018730  81.1834240  51.5139870  14.2736780  81.4398200
  53.0192180  30.0879010  78.5370080  52.5595150  30.8394820  78.1628100
  52.3904640  29.3685480  78.4784880  39.8442800  26.1822250  80.9268800
  39.1176860  25.5627540  80.8594750  39.9051950  26.5762860  80.0566880
  43.4487900  28.3967250  77.7118210  43.9652920  27.7854610  77.1866470
  44.0985280  28.8996030  78.2029220  46.1883400  29.2875740  78.5387190
  46.4761210  29.0330040  77.6620200  46.7006620  28.7353100  79.1292760
  47.4060410  13.0265940  79.1183700  46.6232200  13.5011440  79.3980460
  47.1123340  12.1220770  79.0096880  51.9581480  13.7289040  77.1632790
  52.3989570  13.6734140  76.3154390  51.6889070  14.6447050  77.2342970
  53.8220050  13.3604280  75.1741610  53.7608450  12.4165500  75.0272630
  54.6012080  13.4684370  75.7195070  38.1272800  29.4996640  74.1365560
  37.9594840  28.8667320  74.8347450  37.2607310  29.7056040  73.7859750
  38.7500820  13.3313420  71.6397420  39.5080180  13.4442300  71.0661450
  38.2877990  14.1682620  71.5940850  45.2914630  15.4452690  74.6299730
  44.4789140  15.0709580  74.2895610  45.7956270  14.6897770  74.9320920
  49.7939610  12.1095140  75.8682800  50.3968980  12.6815350  76.3431320
  49.0532600  12.6734580  75.6456700  52.9374210  12.5116700  71.1423080
  53.1324840  13.4100150  71.4090510  52.1504080  12.2803780  71.6356030
  39.7335500  28.1929870  71.5815700  39.2083120  28.5737900  70.8777660
  39.6580080  28.8180640  72.3025410  41.1225970  13.8577470  70.1799390
  41.6518730  13.0707270  70.0507340  41.7554290  14.5368660  70.4134920
  43.3163810  13.5952610  73.2344780  42.6866550  12.8939920  73.4014910
  42.7768950  14.3556740  73.0177940  46.2555760  30.2091840  85.9055390
  47.1823070  29.9736110  85.9491350  46.2406190  31.0363840  85.4241420
  54.4900820  29.7517410  72.9029640  54.6653010  29.0655150  72.2590560
  53.7922390  30.2764460  72.5106310  43.4419370  12.8736590  85.6697270
  43.1603640  13.3770190  84.9058090  43.8239070  12.0758340  85.3039400
  42.3328470  30.1412250  70.4564950  43.0647290  29.8571530  69.9088840
  42.5922140  29.9025530  71.3464330  41.4943260  26.2576980  70.4611280
  40.8652140  26.7262080  71.0097110  41.6091090  25.4126200  70.8957470
  50.0434830  12.2890170  86.2477740  49.9300280  12.6084780  87.1429260
  50.8604570  12.6902680  85.9515020  52.8233320  29.4361700  85.7296430
  53.6158640  28.9410930  85.5222390  53.1166470  30.1151840  86.3372040
  48.9492980  20.3082640  56.6112480  48.8687030  19.3937250  56.3404190
  48.5357400  20.8049710  55.9052190  47.0811020  22.0861660  58.4921750
  46.3053120  21.6062100  58.7820320  47.7323950  21.4067310  58.3177910
  41.0976850  22.3981470  59.3697510  40.2661730  22.1430180  59.7694020
  41.7057830  22.4692240  60.1055430  51.1018450  26.4921850  57.2720880
  50.6399980  25.7209090  57.6008050  51.9144000  26.5187920  57.7773330
  41.0778110  26.4321560  59.5655530  41.3806150  25.5419300  59.3865750
  41.8221700  26.9891780  59.3377780  39.5068800  17.3583360  53.1539900
  38.6185500  17.6999330  53.0519780  39.7909990  17.1583680  52.2620730
  37.4701810  19.9589010  59.0379600  38.0417920  19.1911210  59.0383240
  37.4703350  20.2577770  58.1286210  47.3281760  28.7779860  56.8924870
  46.7093200  29.2337360  56.3219310  48.1833540  28.9331320  56.4914570
  46.5220010  24.7618850  58.4991910  46.4528290  23.8208790  58.3381040
  47.2839870  24.8520260  59.0714480  38.7126680  15.3673370  60.8248530
  38.5329520  14.4699120  61.1051290  38.3106760  15.9145240  61.4995480
  47.5525180  17.5689230  58.7260840  47.9290000  16.6961110  58.6134510
  47.4544690  17.9047930  57.8351280  41.6830190  15.9414860  54.1878280
  41.7896940  16.8418590  54.4947040  40.7722550  15.8932830  53.8972930
  51.3349300  15.0639670  55.6589180  52.1558920  14.5736240  55.7014660
  51.3683380  15.6537330  56.4121020  39.3313350  17.8633870  59.4330870
  40.0123460  18.1272240  60.0518270  39.0161400  17.0234740  59.7668880
  43.5237920  18.9101230  58.5203460  44.0316140  19.4082200  59.1608480
  44.0551160  18.1336430  58.3442820  55.6248850  17.0806420  62.2232810
  54.9201020  17.4688130  61.7047920  55.8906770  17.7756710  62.8253740
  41.8074020  13.5499790  62.7866880  41.8092460  14.0672180  61.9812780
  40.9778330  13.0729970  62.7636810  48.1945110  23.6619100  54.2856780
  47.5762380  24.1268550  53.7219500  48.7068360  24.3546580  54.7026290
  43.0576870  23.1894970  60.9640380  42.7246250  23.8163890  61.6061450
  43.2343550  23.7156850  60.1842050  51.5710780  17.0040050  58.4316720
  50.8666350  17.2924940  59.0119830  51.9322940  17.8140160  58.0716280
  41.4889350  15.2609750  60.7937330  41.8306160  16.1051800  60.4991200
  40.5505160  15.4093490  60.9102670  42.2695970  25.1575770  62.7789560
  42.8869970  25.8326850  62.4974010  41.4089090  25.5663750  62.6877060
  37.5628310  24.3475630  51.6596410  37.1856290  24.8362730  50.9281310
  37.8201380  25.0200910  52.2902940  53.1873560  26.6215180  60.6944200
  52.5037080  27.2914290  60.6860870  53.7267850  26.8195830  59.9289060
  54.6397700  16.4494840  58.8225930  53.6922610  16.4833820  58.9541360
  54.9647690  17.2633790  59.2075290  45.1717240  12.7492020  57.1181920
  45.4792220  12.1938910  56.4017420  44.2417940  12.8836480  56.9354910
  50.7232300  28.4659310  59.4089380  50.7359460  28.0621600  58.5411640
  50.1707520  29.2406600  59.3050810  52.0177720  25.1875530  54.4979550
  51.9074050  24.2449860  54.6228970  52.0145970  25.5491170  55.3842310
  50.1217740  23.3689150  60.7371990  50.5386530  23.1549260  59.9025450
  50.8457560  23.6261940  61.3080610  47.5598000  20.8140850  53.8542040
  46.6327280  20.7478230  54.0830510  47.7122820  21.7520980  53.7397280
  47.5467080  17.0857850  50.8509200  46.6070750  17.2471810  50.9361660
  47.8650340  17.8043530  50.3045190  54.0679840  21.7676370  60.8288230
  53.2398470  21.8369460  60.3538360  54.6630320  22.3530680  60.3604060
  51.5895290  22.3761150  54.3577290  50.9707710  22.0380700  53.7103590
  51.5719740  21.7320910  55.0656480  51.0321850  18.5545690  61.7743100
  50.6193030  19.3799400  62.0283090  50.2997800  17.9690730  61.5819460
  43.1654640  21.3405590  56.6361770  42.7611640  20.6282840  56.1407670
  43.2517760  20.9958830  57.5249810  43.6336340  25.0273150  58.8000980
  43.3364630  24.4218620  58.1208760  44.5836160  25.0650460  58.6890340
  41.8783260  18.1148800  60.4160810  42.4297850  18.2244140  59.6414060
  42.3926770  18.4886400  61.1316040  51.7221950  28.6005020  62.4624080
  51.2452510  29.4077210  62.2696690  51.0383740  27.9483350  62.6150290
  42.7254770  24.7654840  65.4508780  41.8283300  24.9894810  65.6982180
  42.7507640  24.8889780  64.5020180  49.7659990  21.6147960  51.3650040
  50.2053270  20.7770390  51.2187860  50.4788410  22.2477360  51.4514180
  41.5525990  21.6368160  64.0266150  41.4133760  22.5090960  64.3953550
  40.6707350  21.2940970  63.8814090  47.8755370  26.5544030  55.3331280
  48.3151280  27.2968360  54.9186670  47.8142260  26.7970600  56.2570240
  43.3506340  27.5789860  66.2351300  43.3221770  27.9832810  65.3679730
  43.1871310  26.6500220  66.0722900  53.3477130  12.8690770  49.6791080
  53.0349790  12.9617600  50.5790150  54.1089600  13.4471800  49.6288510
  39.8659270  20.2350570  54.1368420  39.7456870  20.9612660  53.5249690
  39.5560160  19.4653480  53.6596330  55.3021160  28.3616960  67.5315470
  55.7780880  28.8399850  68.2104550  55.9228320  28.2934450  66.8060970
  37.5044640  23.4065710  59.9437060  37.5825060  23.5414480  58.9992780
  38.1186320  22.6981600  60.1365180  38.7492270  25.1065900  56.3543240
  38.3420350  25.2480490  55.4996840  39.6405280  24.8226060  56.1514450
  54.7054410  25.5529810  64.6915480  54.8317470  25.3141690  63.7732660
  54.7475790  24.7214350  65.1637560  48.5671150  29.2557810  63.2610290
  49.0815820  29.1665820  64.0632720  47.7240230  29.6017510  63.5538200
  50.5425550  29.5413150  52.6894290  50.3826690  29.2516090  53.5876120
  50.3772260  28.7653280  52.1539520  43.0213930  29.3211680  54.4665910
  42.8456410  28.4047220  54.2533710  42.1669670  29.6798970  54.7063710
  50.2451680  27.0500710  51.2492290  49.5516840  27.0478000  50.5894570
  50.9874540  26.6260030  50.8186460  49.8101610  28.6763420  55.3240780
  50.2658560  27.8952800  55.6379400  50.1494130  29.3870240  55.8681960
  54.5578420  17.6062270  65.6565220  53.9422690  18.1141940  65.1280680
  54.2374840  16.7060600  65.5991160  37.5604160  24.4479880  62.4831520
  37.7235200  23.9785240  61.6650890  38.0256610  23.9403440  63.1480360
  42.3322930  13.5785640  57.5192090  41.8891080  14.3595180  57.1876610
  42.8907920  13.9015530  58.2263030  46.6192740  16.4454160  63.1227410
  46.1572110  16.6537180  63.9347350  46.2170850  15.6313510  62.8198080
  51.6197250  17.6663110  64.2524070  50.7690840  17.3668860  64.5733140
  51.4599040  17.9105120  63.3407890  48.7146960  19.1664860  66.3522860
  49.0400370  18.3328610  66.0125090  49.5027290  19.6893380  66.5001190
  45.4481750  13.1996340  52.3997920  44.8235930  13.1956210  53.1251230
  45.3611870  12.3327300  52.0033890  44.3698830  14.1232970  59.3781690
  44.6671160  15.0295800  59.2973710  44.9184390  13.6351750  58.7641260
  42.1237150  18.7019210  55.2473340  41.8978070  18.4856380  56.1519960
  41.3429680  19.1347670  54.9019310  49.3534910  18.7082580  53.8463990
  48.7543800  19.4318380  53.6627610  49.9014520  18.6459360  53.0640440
  44.5636360  19.6004790  65.9133610  44.4679960  18.6599520  65.7634010
  45.4068340  19.8219860  65.5181680  47.9599780  17.3446120  55.8767270
  48.3529350  17.6618320  55.0635960  48.3216630  16.4658000  55.9911790
  39.6946900  16.0118460  64.0667390  39.3010290  16.8593670  64.2740170
  39.0065300  15.3744830  64.2576030  46.2691950  16.0953430  67.1364130
  45.5790270  15.9025630  67.7710220  47.0124250  16.3788070  67.6688430
  36.9963950  13.9346920  58.0997470  36.7077000  14.5049780  58.8122450
  37.7409710  13.4551370  58.4628700  37.1834180  17.8767040  49.3100190
  37.1008850  18.8197800  49.4515180  36.8317240  17.7341950  48.4312540
  48.5454920  19.9351870  59.9718050  47.8136040  20.4438680  60.3208150
  48.1479260  19.1181850  59.6706830  44.9832310  16.6106070  58.3770540
  44.9868370  16.1696020  57.5275080  45.8783430  16.9323400  58.4842360
  40.8334690  16.4932560  57.3364750  40.4934740  16.9707790  58.0931800
  40.0712010  16.0397680  56.9765850  45.0452460  17.6118150  51.3677300
  45.1665280  17.5704630  52.3163120  44.6600970  18.4742300  51.2124030
  49.0080830  15.3885550  59.3840990  49.0253570  15.8394200  60.2282840
  48.7596410  14.4891190  59.5974430  44.0573960  19.9219290  50.7660600
  43.4890860  19.4737540  50.1396510  44.7662960  20.2812070  50.2325750
  52.4351580  12.8017730  65.2227370  52.7597350  12.0707390  65.7485350
  52.4708090  12.4831370  64.3208360  39.1343140  23.8231310  64.6427330
  38.7497930  23.1824980  65.2410290  39.4455330  24.5267430  65.2122060
  45.2840280  20.6707850  60.1235950  45.6510410  20.1966420  60.8697290
  45.0945340  21.5449420  60.4644290  38.1480770  15.4151540  56.2529420
  37.8627690  15.0507210  57.0908040  38.0859630  14.6832000  55.6392560
  43.0739650  19.7116490  62.4420160  42.7696720  20.5908470  62.6670520
  44.0286110  19.7716280  62.4777600  41.6021440  23.9177480  53.0387010
  40.8283700  23.3775100  52.8785730  42.3316070  23.3984090  52.7004770
  52.3609420  22.9142840  58.8313400  53.0808540  23.4098130  58.4409510
  52.1591240  22.2360730  58.1867270  47.8219360  14.3080800  52.9742790
  47.0083970  13.8093970  52.8988100  47.6281310  15.1479050  52.5579140
  47.7428220  22.9851900  64.7182400  47.6765530  22.0647570  64.4639990
  47.1133360  23.0827340  65.4327040  50.5367750  18.6800450  51.2704950
  51.4247370  18.9917680  51.0956290  50.5072840  17.8072700  50.8785530
  41.6458840  23.5857860  56.6765820  42.1637510  22.7826120  56.6222710
  41.1942860  23.5237000  57.5182650  46.5328340  24.8524140  51.9493120
  46.8744040  25.5966370  51.4536440  45.7041050  25.1655260  52.3117950
  39.1303380  20.5519230  63.5891520  38.7718320  21.2173080  64.1764860
  38.8357940  19.7202780  63.9604140  42.3316500  21.0103470  66.4731070
  42.0316640  21.1560650  65.5758890  43.1027740  20.4508760  66.3804460
  47.6744950  25.8072470  64.4686200  47.6889490  24.8753430  64.2505110
  46.9670050  25.8932230  65.1075970  52.8082020  19.9912290  50.7384810
  52.7245740  20.4226510  49.8881250  53.5276210  20.4510640  51.1711630
  53.8856160  22.4479810  63.8154780  53.1604350  23.0408590  63.6184170
  54.4131620  22.4403350  63.0168150  53.8369270  26.8454550  53.4666940
  53.1945430  26.1910170  53.7410660  53.4499930  27.2509640  52.6907610
  49.4155750  24.1739980  57.3138630  49.7679570  23.5768110  56.6540000
  48.5318080  23.8484210  57.4846880  45.5019030  24.9337670  54.7209040
  46.1890160  25.4806880  55.1016630  44.7151450  25.4778400  54.7558650
  37.6411430  20.5510490  50.2126120  38.5106280  20.8335290  50.4962040
  37.1501750  21.3646360  50.0974930  44.8046240  21.9383700  54.3334400
  45.2609020  22.7488950  54.5594590  44.4534450  21.6206840  55.1652890
  47.1078850  27.4490040  61.5626700  47.7521070  27.6549420  62.2400120
  47.4708290  26.6878440  61.1097550  40.7058020  12.2821350  54.8056920
  40.5772650  12.2739250  55.7541840  39.8820040  12.6204440  54.4547930
  48.3810930  25.4522390  60.2804150  49.0233160  24.7515550  60.3936320
  48.9060280  26.2320830  60.1001040  52.2266650  25.7371010  50.0043290
  52.0004230  25.0201450  50.5967930  51.8362850  25.4883450  49.1665040
  50.1548550  26.2517290  63.4840210  50.4904790  26.8383980  64.1618130
  49.2348890  26.1210000  63.7138000  38.0082680  29.7637870  50.7787750
  38.3680320  30.3627210  50.1245020  37.8675020  30.3097760  51.5522780
  37.7051950  14.0412470  64.2663620  36.9910470  14.2409390  64.8716230
  38.1246990  13.2652040  64.6378420  51.8082900  23.6542950  51.6657450
  51.5204600  24.1155640  52.4535330  52.6035070  23.1940720  51.9341670
  37.9924540  28.0292730  65.2530150  38.1015660  27.0887470  65.1125540
  37.3405100  28.2947480  64.6043880  45.9837130  26.3008620  66.6528270
  45.6634000  25.5817860  67.1973960  45.3095490  26.9763690  66.7264330
  44.0251300  27.1469070  51.5961420  44.0161400  27.8798760  50.9805930
  43.1049660  26.9000650  51.6888380  39.6257940  22.3683960  52.3408180
  39.0185890  23.1082860  52.3503480  40.1007290  22.4583320  51.5146380
  49.1990730  16.5334780  62.0165070  49.5671550  15.7129990  62.3444640
  48.3388930  16.5936670  62.4320720  52.5652760  15.4891720  52.8252630
  51.9365920  15.5937390  52.1110860  52.0704680  15.7088500  53.6146510
  47.0110900  27.2097310  50.2586610  47.1122880  27.0061300  49.3288590
  46.1112640  26.9555590  50.4634390  44.5336790  17.7677670  54.2410510
  43.8252940  18.2364010  54.6824120  44.8181270  17.1099680  54.8755700
  46.1592720  19.1874370  62.2403040  46.6577970  19.6620190  62.9054890
  46.3015670  18.2637890  62.4473070  48.5652220  14.4928330  55.6806300
  48.4420000  14.5114460  54.7315810  49.5136780  14.5407270  55.8004700
  45.6529010  29.7283630  54.9534280  45.9070510  29.6905020  54.0313650
  44.7041490  29.6016960  54.9462530  42.7371810  16.0762750  51.6161220
  43.5862340  16.5132900  51.5501410  42.3703080  16.3883010  52.4433280
  53.3659580  15.4042330  63.0831430  52.8633180  16.1447730  63.4225240
  54.1816240  15.7926330  62.7668220  51.6581590  20.6475510  56.5292790
  50.7171730  20.6625740  56.7040480  51.9725660  19.8611470  56.9753090
  41.6363230  22.3295110  50.0896750  42.4026500  22.2176470  50.6522180
  41.7137920  21.6333080  49.4373520  40.3309990  19.7620180  50.7729640
  40.4113580  18.8147690  50.8847040  41.2229740  20.0927060  50.8790300
  53.6607170  27.8184360  58.2047050  53.7854590  28.6415530  58.6770860
  54.5272730  27.6075090  57.8571200  41.1324700  29.9115570  57.8764180
  41.8687180  29.3631030  58.1472750  41.5165620  30.7771580  57.7370170
  38.0170180  25.9789140  53.7505690  37.0909960  26.2210280  53.7411100
  38.4826610  26.8063400  53.6290440  40.1382980  29.0961640  67.0649760
  40.9395710  29.4173690  67.4785160  39.6234800  28.7357220  67.7869670
  44.2427010  29.0845880  49.6989750  45.0355620  29.3734710  49.2471540
  43.7231360  28.6538050  49.0202230  48.9747610  25.2041510  67.0125170
  48.3685770  25.2273110  66.2720920  48.6701720  24.4724550  67.5492420
  50.4047980  28.9321800  65.6234580  51.3569730  28.8479820  65.5734820
  50.2576200  29.5963510  66.2968370  53.2957180  28.3116010  51.1226490
  53.0098690  27.8981150  50.3080670  53.0976730  29.2403720  51.0027010
  37.8580790  21.5835100  66.0085810  38.3619810  21.0042380  66.5802040
  37.1188210  21.8675330  66.5462180  44.7604410  24.3049290  49.5632100
  44.6555050  23.6901640  50.2893480  44.5928630  23.7815180  48.7795110
  44.9118730  22.9906090  65.5421330  44.1464400  23.5591090  65.4576000
  45.0934690  22.6982300  64.6489560  48.0007140  23.3669320  50.1674090
  47.4517240  23.8138620  50.8116830  48.6226400  22.8618570  50.6911760
  52.0542080  24.7211420  66.0996350  52.7951550  25.0587180  65.5963810
  51.2914760  24.8903480  65.5466120  39.8903870  19.7264690  66.9035880
  39.9309210  19.4278560  67.8121110  40.7449370  20.1272300  66.7443400
  43.6682260  22.3260240  52.0639390  44.0898680  22.1600110  52.9070780
  43.7933100  21.5160470  51.5694530  41.8309680  18.3056790  64.8710370
  41.3006140  17.8147740  64.2433710  42.4997750  18.7340990  64.3368300
  46.1809900  21.3497850  49.3116490  46.7015560  20.6346870  48.9457640
  46.8278300  21.9883720  49.6117000  50.7287740  22.7726250  64.6351560
  51.1428760  22.9271330  65.4841980  49.7938740  22.8981470  64.7977340
  51.2009910  20.1122410  66.6390710  51.7830680  19.3574730  66.5511190
  51.3771680  20.6429850  65.8622190  42.3181980  15.2719160  64.9507660
  42.2238850  14.6539910  64.2258530  41.7379370  15.9985450  64.7237570
  45.0843420  13.8292400  61.9835050  44.6360720  13.8516660  61.1380600
  44.4508620  13.4311420  62.5805350  45.4902970  22.7246730  62.6047490
  45.9091080  23.5679460  62.4323730  44.5711600  22.8618770  62.3754270
  47.8266870  20.4562910  63.9885330  47.9463080  19.8604050  64.7280170
  48.6860870  20.4932600  63.5686630  50.1654770  21.0100100  62.5647840
  49.6389990  21.5342720  61.9612980  50.5086110  21.6427490  63.1957570
  42.5641160  18.3993470  49.0097550  42.3630220  17.5360830  49.3710890
  42.3933210  18.3126830  48.0719150  43.3410390  29.0299740  63.7205220
  42.8031480  29.7545800  63.4013920  43.5944350  28.5530080  62.9302560
  44.5935640  16.9984260  65.2461150  45.1835330  16.6900110  65.9338970
  43.7755880  16.5264010  65.4021050  49.4129070  16.6150070  65.4794170
  48.7244590  15.9531610  65.4144160  50.1335090  16.1688340  65.9242630
  50.0429470  13.2101700  51.5384430  50.3231760  12.3669600  51.8943850
  49.2695200  13.4424810  52.0523180  41.3623960  15.4994090  48.9975430
  41.6649860  15.5061520  48.0894580  42.1018550  15.1491950  49.4943090
  46.1972600  30.2650950  63.9791870  46.1231300  31.1686090  64.2864240
  45.2951440  29.9462850  63.9513940  44.5808890  14.4428710  49.9831630
  44.2330890  13.7652700  49.4034080  44.7821660  13.9818220  50.7975020
  46.7457930  29.4309460  51.6018230  47.6408720  29.7694430  51.6236990
  46.7775560  28.7088870  50.9742510  40.3854090  24.8036510  49.8305230
  40.8228960  25.3466180  50.4862810  40.8701820  23.9783460  49.8401570
  37.5999890  27.5925540  57.2825490  37.9302900  26.7246600  57.0504130
  38.0290890  27.7984060  58.1130450  42.1961810  25.9234550  54.9427460
  41.8957350  25.7999520  55.8431370  42.0899300  25.0643140  54.5343190
  38.0890100  28.4596130  60.0207120  37.6521090  28.6396930  60.8531270
  38.6567780  29.2170750  59.8788840  53.7252280  27.9613130  64.3084430
  53.1254270  28.0205690  63.5648350  53.8546180  27.0218110  64.4381280
  54.9653730  25.7030950  49.6454140  54.1346690  25.7707600  50.1161370
  55.1425560  26.5935070  49.3421000  54.4210190  22.4478430  52.1488340
  55.1829100  23.0175080  52.2548030  54.4364560  21.8805630  52.9196650
  37.9214530  20.9716360  56.3796000  37.2663370  20.7028000  55.7355700
  38.7592480  20.8620840  55.9297980  55.4270160  23.3028530  56.9930270
  55.7978990  22.5195850  56.5866240  56.0672090  23.9917630  56.8147570
  52.4103920  24.6865110  62.4060590  51.5963760  25.1162270  62.6686380
  52.8178120  25.2983520  61.7929640  54.4729360  22.7412800  49.3060860
  54.7478200  23.6491680  49.1780080  54.2840100  22.6775330  50.2422850
  50.8704970  15.7657650  50.6014490  51.2889850  15.5788630  49.7611150
  50.5641030  14.9136700  50.9117420  54.3694700  20.6781790  54.2990290
  53.9938300  19.9109720  53.8671580  53.6397820  21.0604490  54.7865220
  38.9590460  21.3568930  60.9199340  39.3263500  21.2696330  61.7995360
  38.3901280  20.5935480  60.8206200  53.7594320  19.8253310  63.9329810
  53.5280410  19.5966060  63.0327760  54.0198870  20.7452860  63.8874700
  38.5106460  18.2678020  64.8257760  37.6162510  18.2344780  65.1651470
  39.0504010  18.4664810  65.5909010  52.1982390  15.0509740  66.7109510
  53.0752570  15.0593140  67.0943510  52.2103230  14.3140580  66.1001860
  37.1352610  18.1815290  52.3221330  36.2316690  18.4445490  52.1472990
  37.6193230  18.4526460  51.5421290  53.6445660  18.9039280  57.5997530
  54.1683140  18.4101930  56.9687700  54.2305080  19.0389640  58.3445100
  53.8235380  18.9879150  61.1217080  52.8738090  18.9542690  61.2362070
  54.0048390  19.8979260  60.8866850  39.6779820  17.2380830  50.2315710
  40.3871520  16.8164050  49.7462990  38.9619760  17.3056060  49.5999060
  39.3253980  13.2920160  49.2718360  40.0482110  13.8329100  49.5899580
  39.5978500  13.0183580  48.3959900  53.1345630  18.1612630  53.5389940
  53.6304750  17.9283500  54.3238820  52.9361700  17.3224470  53.1227580
  39.0146170  12.5426350  59.1740980  39.6622360  11.9923730  58.7336140
  39.4348010  12.7969500  59.9956790  54.5632790  16.7973580  56.0727620
  54.4532070  16.6429620  57.0109890  55.3240380  16.2694520  55.8303030
  52.9098510  12.7367710  62.5310620  53.5470730  13.3501850  62.8969810
  53.0573400  12.7728370  61.5859850  55.4523060  14.6281500  49.3133760
  56.3772370  14.4962680  49.1052050  55.4298850  14.7074320  50.2670210
  55.5261550  15.3992160  51.9390470  54.7313050  15.3337280  52.4683380
  55.7304830  16.3342800  51.9275820  52.4679970  29.4383710  55.9328860
  53.0639040  29.1168280  55.2563280  52.7258120  28.9655530  56.7242130
  38.7678170  12.6982020  61.9166300  38.4192990  13.1545840  62.6824480
  38.4365870  11.8039150  61.9988730  40.3742540  25.8701620  66.0819490
  40.3312170  25.4994530  66.9633950  40.5053550  26.8079190  66.2221310
  44.0748570  27.4261210  61.6829210  43.8339930  27.6935770  60.7959730
  45.0151210  27.5966940  61.7380070  46.2802990  13.8893900  65.4385720
  46.2191880  14.4815730  66.1881130  47.2203370  13.7819860  65.2935980
  48.9177550  13.5463960  65.0778010  49.5317960  13.8643250  64.4159090
  49.4627110  13.0612550  65.6973870  55.3352730  29.4455590  62.4839850
  54.8411010  29.8424460  61.7666980  54.7266020  28.8204800  62.8777130
  39.4398810  12.2258220  65.1917070  39.9881800  12.0446270  64.4283180
  39.5054120  11.4352330  65.7273380  40.2130570  28.8163870  63.2017270
  39.6190890  28.6848570  63.9407310  40.2054410  27.9802010  62.7359370
  49.6585590  12.1096100  61.4047300  48.7845430  12.4431210  61.2020230
  49.5496340  11.6369280  62.2299170  50.5657570  14.3166970  62.7889020
  50.2370930  13.5018730  62.4090750  51.5139870  14.2736780  62.6654710
  53.0192180  30.0879010  59.7626590  52.5595150  30.8394820  59.3884610
  52.3904640  29.3685480  59.7041390  39.8442800  26.1822250  62.1525310
  39.1176860  25.5627540  62.0851260  39.9051950  26.5762860  61.2823390
  43.4487900  28.3967250  58.9374720  43.9652920  27.7854610  58.4122980
  44.0985280  28.8996030  59.4285730  46.1883400  29.2875740  59.7643700
  46.4761210  29.0330040  58.8876710  46.7006620  28.7353100  60.3549270
  47.4060410  13.0265940  60.3440210  46.6232200  13.5011440  60.6236970
  47.1123340  12.1220770  60.2353390  51.9581480  13.7289040  58.3889300
  52.3989570  13.6734140  57.5410900  51.6889070  14.6447050  58.4599480
  53.8220050  13.3604280  56.3998120  53.7608450  12.4165500  56.2529140
  54.6012080  13.4684370  56.9451580  38.1272800  29.4996640  55.3622070
  37.9594840  28.8667320  56.0603960  37.2607310  29.7056040  55.0116260
  38.7500820  13.3313420  52.8653930  39.5080180  13.4442300  52.2917960
  38.2877990  14.1682620  52.8197360  45.2914630  15.4452690  55.8556240
  44.4789140  15.0709580  55.5152120  45.7956270  14.6897770  56.1577430
  49.7939610  12.1095140  57.0939310  50.3968980  12.6815350  57.5687830
  49.0532600  12.6734580  56.8713210  52.9374210  12.5116700  52.3679590
  53.1324840  13.4100150  52.6347020  52.1504080  12.2803780  52.8612540
  39.7335500  28.1929870  52.8072210  39.2083120  28.5737900  52.1034170
  39.6580080  28.8180640  53.5281920  41.1225970  13.8577470  51.4055900
  41.6518730  13.0707270  51.2763850  41.7554290  14.5368660  51.6391430
  43.3163810  13.5952610  54.4601290  42.6866550  12.8939920  54.6271420
  42.7768950  14.3556740  54.2434450  46.2555760  30.2091840  67.1311900
  47.1823070  29.9736110  67.1747860  46.2406190  31.0363840  66.6497930
  54.4900820  29.7517410  54.1286150  54.6653010  29.0655150  53.4847070
  53.7922390  30.2764460  53.7362820  43.4419370  12.8736590  66.8953780
  43.1603640  13.3770190  66.1314600  43.8239070  12.0758340  66.5295910
  42.3328470  30.1412250  51.6821460  43.0647290  29.8571530  51.1345350
  42.5922140  29.9025530  52.5720840  41.4943260  26.2576980  51.6867790
  40.8652140  26.7262080  52.2353620  41.6091090  25.4126200  52.1213980
  50.0434830  12.2890170  67.4734250  49.9300280  12.6084780  68.3685770
  50.8604570  12.6902680  67.1771530  52.8233320  29.4361700  66.9552940
  53.6158640  28.9410930  66.7478900  53.1166470  30.1151840  67.5628550
  48.9492980  20.3082640  37.8368990  48.8687030  19.3937250  37.5660700
  48.5357400  20.8049710  37.1308700  47.0811020  22.0861660  39.7178260
  46.3053120  21.6062100  40.0076830  47.7323950  21.4067310  39.5434420
  41.0976850  22.3981470  40.5954020  40.2661730  22.1430180  40.9950530
  41.7057830  22.4692240  41.3311940  51.1018450  26.4921850  38.4977390
  50.6399980  25.7209090  38.8264560  51.9144000  26.5187920  39.0029840
  41.0778110  26.4321560  40.7912040  41.3806150  25.5419300  40.6122260
  41.8221700  26.9891780  40.5634290  39.5068800  17.3583360  34.3796410
  38.6185500  17.6999330  34.2776290  39.7909990  17.1583680  33.4877240
  37.4701810  19.9589010  40.2636110  38.0417920  19.1911210  40.2639750
  37.4703350  20.2577770  39.3542720  47.3281760  28.7779860  38.1181380
  46.7093200  29.2337360  37.5475820  48.1833540  28.9331320  37.7171080
  46.5220010  24.7618850  39.7248420  46.4528290  23.8208790  39.5637550
  47.2839870  24.8520260  40.2970990  38.7126680  15.3673370  42.0505040
  38.5329520  14.4699120  42.3307800  38.3106760  15.9145240  42.7251990
  47.5525180  17.5689230  39.9517350  47.9290000  16.6961110  39.8391020
  47.4544690  17.9047930  39.0607790  41.6830190  15.9414860  35.4134790
  41.7896940  16.8418590  35.7203550  40.7722550  15.8932830  35.1229440
  51.3349300  15.0639670  36.8845690  52.1558920  14.5736240  36.9271170
  51.3683380  15.6537330  37.6377530  39.3313350  17.8633870  40.6587380
  40.0123460  18.1272240  41.2774780  39.0161400  17.0234740  40.9925390
  43.5237920  18.9101230  39.7459970  44.0316140  19.4082200  40.3864990
  44.0551160  18.1336430  39.5699330  55.6248850  17.0806420  43.4489320
  54.9201020  17.4688130  42.9304430  55.8906770  17.7756710  44.0510250
  41.8074020  13.5499790  44.0123390  41.8092460  14.0672180  43.2069290
  40.9778330  13.0729970  43.9893320  48.1945110  23.6619100  35.5113290
  47.5762380  24.1268550  34.9476010  48.7068360  24.3546580  35.9282800
  43.0576870  23.1894970  42.1896890  42.7246250  23.8163890  42.8317960
  43.2343550  23.7156850  41.4098560  51.5710780  17.0040050  39.6573230
  50.8666350  17.2924940  40.2376340  51.9322940  17.8140160  39.2972790
  41.4889350  15.2609750  42.0193840  41.8306160  16.1051800  41.7247710
  40.5505160  15.4093490  42.1359180  42.2695970  25.1575770  44.0046070
  42.8869970  25.8326850  43.7230520  41.4089090  25.5663750  43.9133570
  37.5628310  24.3475630  32.8852920  37.1856290  24.8362730  32.1537820
  37.8201380  25.0200910  33.5159450  53.1873560  26.6215180  41.9200710
  52.5037080  27.2914290  41.9117380  53.7267850  26.8195830  41.1545570
  54.6397700  16.4494840  40.0482440  53.6922610  16.4833820  40.1797870
  54.9647690  17.2633790  40.4331800  45.1717240  12.7492020  38.3438430
  45.4792220  12.1938910  37.6273930  44.2417940  12.8836480  38.1611420
  50.7232300  28.4659310  40.6345890  50.7359460  28.0621600  39.7668150
  50.1707520  29.2406600  40.5307320  52.0177720  25.1875530  35.7236060
  51.9074050  24.2449860  35.8485480  52.0145970  25.5491170  36.6098820
  50.1217740  23.3689150  41.9628500  50.5386530  23.1549260  41.1281960
  50.8457560  23.6261940  42.5337120  47.5598000  20.8140850  35.0798550
  46.6327280  20.7478230  35.3087020  47.7122820  21.7520980  34.9653790
  47.5467080  17.0857850  32.0765710  46.6070750  17.2471810  32.1618170
  47.8650340  17.8043530  31.5301700  54.0679840  21.7676370  42.0544740
  53.2398470  21.8369460  41.5794870  54.6630320  22.3530680  41.5860570
  51.5895290  22.3761150  35.5833800  50.9707710  22.0380700  34.9360100
  51.5719740  21.7320910  36.2912990  51.0321850  18.5545690  42.9999610
  50.6193030  19.3799400  43.2539600  50.2997800  17.9690730  42.8075970
  43.1654640  21.3405590  37.8618280  42.7611640  20.6282840  37.3664180
  43.2517760  20.9958830  38.7506320  43.6336340  25.0273150  40.0257490
  43.3364630  24.4218620  39.3465270  44.5836160  25.0650460  39.9146850
  41.8783260  18.1148800  41.6417320  42.4297850  18.2244140  40.8670570
  42.3926770  18.4886400  42.3572550  51.7221950  28.6005020  43.6880590
  51.2452510  29.4077210  43.4953200  51.0383740  27.9483350  43.8406800
  42.7254770  24.7654840  46.6765290  41.8283300  24.9894810  46.9238690
  42.7507640  24.8889780  45.7276690  49.7659990  21.6147960  32.5906550
  50.2053270  20.7770390  32.4444370  50.4788410  22.2477360  32.6770690
  41.5525990  21.6368160  45.2522660  41.4133760  22.5090960  45.6210060
  40.6707350  21.2940970  45.1070600  47.8755370  26.5544030  36.5587790
  48.3151280  27.2968360  36.1443180  47.8142260  26.7970600  37.4826750
  43.3506340  27.5789860  47.4607810  43.3221770  27.9832810  46.5936240
  43.1871310  26.6500220  47.2979410  53.3477130  12.8690770  30.9047590
  53.0349790  12.9617600  31.8046660  54.1089600  13.4471800  30.8545020
  39.8659270  20.2350570  35.3624930  39.7456870  20.9612660  34.7506200
  39.5560160  19.4653480  34.8852840  55.3021160  28.3616960  48.7571980
  55.7780880  28.8399850  49.4361060  55.9228320  28.2934450  48.0317480
  37.5044640  23.4065710  41.1693570  37.5825060  23.5414480  40.2249290
  38.1186320  22.6981600  41.3621690  38.7492270  25.1065900  37.5799750
  38.3420350  25.2480490  36.7253350  39.6405280  24.8226060  37.3770960
  54.7054410  25.5529810  45.9171990  54.8317470  25.3141690  44.9989170
  54.7475790  24.7214350  46.3894070  48.5671150  29.2557810  44.4866800
  49.0815820  29.1665820  45.2889230  47.7240230  29.6017510  44.7794710
  50.5425550  29.5413150  33.9150800  50.3826690  29.2516090  34.8132630
  50.3772260  28.7653280  33.3796030  43.0213930  29.3211680  35.6922420
  42.8456410  28.4047220  35.4790220  42.1669670  29.6798970  35.9320220
  50.2451680  27.0500710  32.4748800  49.5516840  27.0478000  31.8151080
  50.9874540  26.6260030  32.0442970  49.8101610  28.6763420  36.5497290
  50.2658560  27.8952800  36.8635910  50.1494130  29.3870240  37.0938470
  54.5578420  17.6062270  46.8821730  53.9422690  18.1141940  46.3537190
  54.2374840  16.7060600  46.8247670  37.5604160  24.4479880  43.7088030
  37.7235200  23.9785240  42.8907400  38.0256610  23.9403440  44.3736870
  42.3322930  13.5785640  38.7448600  41.8891080  14.3595180  38.4133120
  42.8907920  13.9015530  39.4519540  46.6192740  16.4454160  44.3483920
  46.1572110  16.6537180  45.1603860  46.2170850  15.6313510  44.0454590
  51.6197250  17.6663110  45.4780580  50.7690840  17.3668860  45.7989650
  51.4599040  17.9105120  44.5664400  48.7146960  19.1664860  47.5779370
  49.0400370  18.3328610  47.2381600  49.5027290  19.6893380  47.7257700
  45.4481750  13.1996340  33.6254430  44.8235930  13.1956210  34.3507740
  45.3611870  12.3327300  33.2290400  44.3698830  14.1232970  40.6038200
  44.6671160  15.0295800  40.5230220  44.9184390  13.6351750  39.9897770
  42.1237150  18.7019210  36.4729850  41.8978070  18.4856380  37.3776470
  41.3429680  19.1347670  36.1275820  49.3534910  18.7082580  35.0720500
  48.7543800  19.4318380  34.8884120  49.9014520  18.6459360  34.2896950
  44.5636360  19.6004790  47.1390120  44.4679960  18.6599520  46.9890520
  45.4068340  19.8219860  46.7438190  47.9599780  17.3446120  37.1023780
  48.3529350  17.6618320  36.2892470  48.3216630  16.4658000  37.2168300
  39.6946900  16.0118460  45.2923900  39.3010290  16.8593670  45.4996680
  39.0065300  15.3744830  45.4832540  46.2691950  16.0953430  48.3620640
  45.5790270  15.9025630  48.9966730  47.0124250  16.3788070  48.8944940
  36.9963950  13.9346920  39.3253980  36.7077000  14.5049780  40.0378960
  37.7409710  13.4551370  39.6885210  37.1834180  17.8767040  30.5356700
  37.1008850  18.8197800  30.6771690  36.8317240  17.7341950  29.6569050
  48.5454920  19.9351870  41.1974560  47.8136040  20.4438680  41.5464660
  48.1479260  19.1181850  40.8963340  44.9832310  16.6106070  39.6027050
  44.9868370  16.1696020  38.7531590  45.8783430  16.9323400  39.7098870
  40.8334690  16.4932560  38.5621260  40.4934740  16.9707790  39.3188310
  40.0712010  16.0397680  38.2022360  45.0452460  17.6118150  32.5933810
  45.1665280  17.5704630  33.5419630  44.6600970  18.4742300  32.4380540
  49.0080830  15.3885550  40.6097500  49.0253570  15.8394200  41.4539350
  48.7596410  14.4891190  40.8230940  44.0573960  19.9219290  31.9917110
  43.4890860  19.4737540  31.3653020  44.7662960  20.2812070  31.4582260
  52.4351580  12.8017730  46.4483880  52.7597350  12.0707390  46.9741860
  52.4708090  12.4831370  45.5464870  39.1343140  23.8231310  45.8683840
  38.7497930  23.1824980  46.4666800  39.4455330  24.5267430  46.4378570
  45.2840280  20.6707850  41.3492460  45.6510410  20.1966420  42.0953800
  45.0945340  21.5449420  41.6900800  38.1480770  15.4151540  37.4785930
  37.8627690  15.0507210  38.3164550  38.0859630  14.6832000  36.8649070
  43.0739650  19.7116490  43.6676670  42.7696720  20.5908470  43.8927030
  44.0286110  19.7716280  43.7034110  41.6021440  23.9177480  34.2643520
  40.8283700  23.3775100  34.1042240  42.3316070  23.3984090  33.9261280
  52.3609420  22.9142840  40.0569910  53.0808540  23.4098130  39.6666020
  52.1591240  22.2360730  39.4123780  47.8219360  14.3080800  34.1999300
  47.0083970  13.8093970  34.1244610  47.6281310  15.1479050  33.7835650
  47.7428220  22.9851900  45.9438910  47.6765530  22.0647570  45.6896500
  47.1133360  23.0827340  46.6583550  50.5367750  18.6800450  32.4961460
  51.4247370  18.9917680  32.3212800  50.5072840  17.8072700  32.1042040
  41.6458840  23.5857860  37.9022330  42.1637510  22.7826120  37.8479220
  41.1942860  23.5237000  38.7439160  46.5328340  24.8524140  33.1749630
  46.8744040  25.5966370  32.6792950  45.7041050  25.1655260  33.5374460
  39.1303380  20.5519230  44.8148030  38.7718320  21.2173080  45.4021370
  38.8357940  19.7202780  45.1860650  42.3316500  21.0103470  47.6987580
  42.0316640  21.1560650  46.8015400  43.1027740  20.4508760  47.6060970
  47.6744950  25.8072470  45.6942710  47.6889490  24.8753430  45.4761620
  46.9670050  25.8932230  46.3332480  52.8082020  19.9912290  31.9641320
  52.7245740  20.4226510  31.1137760  53.5276210  20.4510640  32.3968140
  53.8856160  22.4479810  45.0411290  53.1604350  23.0408590  44.8440680
  54.4131620  22.4403350  44.2424660  53.8369270  26.8454550  34.6923450
  53.1945430  26.1910170  34.9667170  53.4499930  27.2509640  33.9164120
  49.4155750  24.1739980  38.5395140  49.7679570  23.5768110  37.8796510
  48.5318080  23.8484210  38.7103390  45.5019030  24.9337670  35.9465550
  46.1890160  25.4806880  36.3273140  44.7151450  25.4778400  35.9815160
  37.6411430  20.5510490  31.4382630  38.5106280  20.8335290  31.7218550
  37.1501750  21.3646360  31.3231440  44.8046240  21.9383700  35.5590910
  45.2609020  22.7488950  35.7851100  44.4534450  21.6206840  36.3909400
  47.1078850  27.4490040  42.7883210  47.7521070  27.6549420  43.4656630
  47.4708290  26.6878440  42.3354060  40.7058020  12.2821350  36.0313430
  40.5772650  12.2739250  36.9798350  39.8820040  12.6204440  35.6804440
  48.3810930  25.4522390  41.5060660  49.0233160  24.7515550  41.6192830
  48.9060280  26.2320830  41.3257550  52.2266650  25.7371010  31.2299800
  52.0004230  25.0201450  31.8224440  51.8362850  25.4883450  30.3921550
  50.1548550  26.2517290  44.7096720  50.4904790  26.8383980  45.3874640
  49.2348890  26.1210000  44.9394510  38.0082680  29.7637870  32.0044260
  38.3680320  30.3627210  31.3501530  37.8675020  30.3097760  32.7779290
  37.7051950  14.0412470  45.4920130  36.9910470  14.2409390  46.0972740
  38.1246990  13.2652040  45.8634930  51.8082900  23.6542950  32.8913960
  51.5204600  24.1155640  33.6791840  52.6035070  23.1940720  33.1598180
  37.9924540  28.0292730  46.4786660  38.1015660  27.0887470  46.3382050
  37.3405100  28.2947480  45.8300390  45.9837130  26.3008620  47.8784780
  45.6634000  25.5817860  48.4230470  45.3095490  26.9763690  47.9520840
  44.0251300  27.1469070  32.8217930  44.0161400  27.8798760  32.2062440
  43.1049660  26.9000650  32.9144890  39.6257940  22.3683960  33.5664690
  39.0185890  23.1082860  33.5759990  40.1007290  22.4583320  32.7402890
  49.1990730  16.5334780  43.2421580  49.5671550  15.7129990  43.5701150
  48.3388930  16.5936670  43.6577230  52.5652760  15.4891720  34.0509140
  51.9365920  15.5937390  33.3367370  52.0704680  15.7088500  34.8403020
  47.0110900  27.2097310  31.4843120  47.1122880  27.0061300  30.5545100
  46.1112640  26.9555590  31.6890900  44.5336790  17.7677670  35.4667020
  43.8252940  18.2364010  35.9080630  44.8181270  17.1099680  36.1012210
  46.1592720  19.1874370  43.4659550  46.6577970  19.6620190  44.1311400
  46.3015670  18.2637890  43.6729580  48.5652220  14.4928330  36.9062810
  48.4420000  14.5114460  35.9572320  49.5136780  14.5407270  37.0261210
  45.6529010  29.7283630  36.1790790  45.9070510  29.6905020  35.2570160
  44.7041490  29.6016960  36.1719040  42.7371810  16.0762750  32.8417730
  43.5862340  16.5132900  32.7757920  42.3703080  16.3883010  33.6689790
  53.3659580  15.4042330  44.3087940  52.8633180  16.1447730  44.6481750
  54.1816240  15.7926330  43.9924730  51.6581590  20.6475510  37.7549300
  50.7171730  20.6625740  37.9296990  51.9725660  19.8611470  38.2009600
  41.6363230  22.3295110  31.3153260  42.4026500  22.2176470  31.8778690
  41.7137920  21.6333080  30.6630030  40.3309990  19.7620180  31.9986150
  40.4113580  18.8147690  32.1103550  41.2229740  20.0927060  32.1046810
  53.6607170  27.8184360  39.4303560  53.7854590  28.6415530  39.9027370
  54.5272730  27.6075090  39.0827710  41.1324700  29.9115570  39.1020690
  41.8687180  29.3631030  39.3729260  41.5165620  30.7771580  38.9626680
  38.0170180  25.9789140  34.9762200  37.0909960  26.2210280  34.9667610
  38.4826610  26.8063400  34.8546950  40.1382980  29.0961640  48.2906270
  40.9395710  29.4173690  48.7041670  39.6234800  28.7357220  49.0126180
  44.2427010  29.0845880  30.9246260  45.0355620  29.3734710  30.4728050
  43.7231360  28.6538050  30.2458740  48.9747610  25.2041510  48.2381680
  48.3685770  25.2273110  47.4977430  48.6701720  24.4724550  48.7748930
  50.4047980  28.9321800  46.8491090  51.3569730  28.8479820  46.7991330
  50.2576200  29.5963510  47.5224880  53.2957180  28.3116010  32.3483000
  53.0098690  27.8981150  31.5337180  53.0976730  29.2403720  32.2283520
  37.8580790  21.5835100  47.2342320  38.3619810  21.0042380  47.8058550
  37.1188210  21.8675330  47.7718690  44.7604410  24.3049290  30.7888610
  44.6555050  23.6901640  31.5149990  44.5928630  23.7815180  30.0051620
  44.9118730  22.9906090  46.7677840  44.1464400  23.5591090  46.6832510
  45.0934690  22.6982300  45.8746070  48.0007140  23.3669320  31.3930600
  47.4517240  23.8138620  32.0373340  48.6226400  22.8618570  31.9168270
  52.0542080  24.7211420  47.3252860  52.7951550  25.0587180  46.8220320
  51.2914760  24.8903480  46.7722630  39.8903870  19.7264690  48.1292390
  39.9309210  19.4278560  49.0377620  40.7449370  20.1272300  47.9699910
  43.6682260  22.3260240  33.2895900  44.0898680  22.1600110  34.1327290
  43.7933100  21.5160470  32.7951040  41.8309680  18.3056790  46.0966880
  41.3006140  17.8147740  45.4690220  42.4997750  18.7340990  45.5624810
  46.1809900  21.3497850  30.5373000  46.7015560  20.6346870  30.1714150
  46.8278300  21.9883720  30.8373510  50.7287740  22.7726250  45.8608070
  51.1428760  22.9271330  46.7098490  49.7938740  22.8981470  46.0233850
  51.2009910  20.1122410  47.8647220  51.7830680  19.3574730  47.7767700
  51.3771680  20.6429850  47.0878700  42.3181980  15.2719160  46.1764170
  42.2238850  14.6539910  45.4515040  41.7379370  15.9985450  45.9494080
  45.0843420  13.8292400  43.2091560  44.6360720  13.8516660  42.3637110
  44.4508620  13.4311420  43.8061860  45.4902970  22.7246730  43.8304000
  45.9091080  23.5679460  43.6580240  44.5711600  22.8618770  43.6010780
  47.8266870  20.4562910  45.2141840  47.9463080  19.8604050  45.9536680
  48.6860870  20.4932600  44.7943140  50.1654770  21.0100100  43.7904350
  49.6389990  21.5342720  43.1869490  50.5086110  21.6427490  44.4214080
  42.5641160  18.3993470  30.2354060  42.3630220  17.5360830  30.5967400
  42.3933210  18.3126830  29.2975660  43.3410390  29.0299740  44.9461730
  42.8031480  29.7545800  44.6270430  43.5944350  28.5530080  44.1559070
  44.5935640  16.9984260  46.4717660  45.1835330  16.6900110  47.1595480
  43.7755880  16.5264010  46.6277560  49.4129070  16.6150070  46.7050680
  48.7244590  15.9531610  46.6400670  50.1335090  16.1688340  47.1499140
  50.0429470  13.2101700  32.7640940  50.3231760  12.3669600  33.1200360
  49.2695200  13.4424810  33.2779690  41.3623960  15.4994090  30.2231940
  41.6649860  15.5061520  29.3151090  42.1018550  15.1491950  30.7199600
  46.1972600  30.2650950  45.2048380  46.1231300  31.1686090  45.5120750
  45.2951440  29.9462850  45.1770450  44.5808890  14.4428710  31.2088140
  44.2330890  13.7652700  30.6290590  44.7821660  13.9818220  32.0231530
  46.7457930  29.4309460  32.8274740  47.6408720  29.7694430  32.8493500
  46.7775560  28.7088870  32.1999020  40.3854090  24.8036510  31.0561740
  40.8228960  25.3466180  31.7119320  40.8701820  23.9783460  31.0658080
  37.5999890  27.5925540  38.5082000  37.9302900  26.7246600  38.2760640
  38.0290890  27.7984060  39.3386960  42.1961810  25.9234550  36.1683970
  41.8957350  25.7999520  37.0687880  42.0899300  25.0643140  35.7599700
  38.0890100  28.4596130  41.2463630  37.6521090  28.6396930  42.0787780
  38.6567780  29.2170750  41.1045350  53.7252280  27.9613130  45.5340940
  53.1254270  28.0205690  44.7904860  53.8546180  27.0218110  45.6637790
  54.9653730  25.7030950  30.8710650  54.1346690  25.7707600  31.3417880
  55.1425560  26.5935070  30.5677510  54.4210190  22.4478430  33.3744850
  55.1829100  23.0175080  33.4804540  54.4364560  21.8805630  34.1453160
  37.9214530  20.9716360  37.6052510  37.2663370  20.7028000  36.9612210
  38.7592480  20.8620840  37.1554490  55.4270160  23.3028530  38.2186780
  55.7978990  22.5195850  37.8122750  56.0672090  23.9917630  38.0404080
  52.4103920  24.6865110  43.6317100  51.5963760  25.1162270  43.8942890
  52.8178120  25.2983520  43.0186150  54.4729360  22.7412800  30.5317370
  54.7478200  23.6491680  30.4036590  54.2840100  22.6775330  31.4679360
  50.8704970  15.7657650  31.8271000  51.2889850  15.5788630  30.9867660
  50.5641030  14.9136700  32.1373930  54.3694700  20.6781790  35.5246800
  53.9938300  19.9109720  35.0928090  53.6397820  21.0604490  36.0121730
  38.9590460  21.3568930  42.1455850  39.3263500  21.2696330  43.0251870
  38.3901280  20.5935480  42.0462710  53.7594320  19.8253310  45.1586320
  53.5280410  19.5966060  44.2584270  54.0198870  20.7452860  45.1131210
  38.5106460  18.2678020  46.0514270  37.6162510  18.2344780  46.3907980
  39.0504010  18.4664810  46.8165520  52.1982390  15.0509740  47.9366020
  53.0752570  15.0593140  48.3200020  52.2103230  14.3140580  47.3258370
  37.1352610  18.1815290  33.5477840  36.2316690  18.4445490  33.3729500
  37.6193230  18.4526460  32.7677800  53.6445660  18.9039280  38.8254040
  54.1683140  18.4101930  38.1944210  54.2305080  19.0389640  39.5701610
  53.8235380  18.9879150  42.3473590  52.8738090  18.9542690  42.4618580
  54.0048390  19.8979260  42.1123360  39.6779820  17.2380830  31.4572220
  40.3871520  16.8164050  30.9719500  38.9619760  17.3056060  30.8255570
  39.3253980  13.2920160  30.4974870  40.0482110  13.8329100  30.8156090
  39.5978500  13.0183580  29.6216410  53.1345630  18.1612630  34.7646450
  53.6304750  17.9283500  35.5495330  52.9361700  17.3224470  34.3484090
  39.0146170  12.5426350  40.3997490  39.6622360  11.9923730  39.9592650
  39.4348010  12.7969500  41.2213300  54.5632790  16.7973580  37.2984130
  54.4532070  16.6429620  38.2366400  55.3240380  16.2694520  37.0559540
  52.9098510  12.7367710  43.7567130  53.5470730  13.3501850  44.1226320
  53.0573400  12.7728370  42.8116360  55.4523060  14.6281500  30.5390270
  56.3772370  14.4962680  30.3308560  55.4298850  14.7074320  31.4926720
  55.5261550  15.3992160  33.1646980  54.7313050  15.3337280  33.6939890
  55.7304830  16.3342800  33.1532330  52.4679970  29.4383710  37.1585370
  53.0639040  29.1168280  36.4819790  52.7258120  28.9655530  37.9498640
  38.7678170  12.6982020  43.1422810  38.4192990  13.1545840  43.9080990
  38.4365870  11.8039150  43.2245240  40.3742540  25.8701620  47.3076000
  40.3312170  25.4994530  48.1890460  40.5053550  26.8079190  47.4477820
  44.0748570  27.4261210  42.9085720  43.8339930  27.6935770  42.0216240
  45.0151210  27.5966940  42.9636580  46.2802990  13.8893900  46.6642230
  46.2191880  14.4815730  47.4137640  47.2203370  13.7819860  46.5192490
  48.9177550  13.5463960  46.3034520  49.5317960  13.8643250  45.6415600
  49.4627110  13.0612550  46.9230380  55.3352730  29.4455590  43.7096360
  54.8411010  29.8424460  42.9923490  54.7266020  28.8204800  44.1033640
  39.4398810  12.2258220  46.4173580  39.9881800  12.0446270  45.6539690
  39.5054120  11.4352330  46.9529890  40.2130570  28.8163870  44.4273780
  39.6190890  28.6848570  45.1663820  40.2054410  27.9802010  43.9615880
  49.6585590  12.1096100  42.6303810  48.7845430  12.4431210  42.4276740
  49.5496340  11.6369280  43.4555680  50.5657570  14.3166970  44.0145530
  50.2370930  13.5018730  43.6347260  51.5139870  14.2736780  43.8911220
  53.0192180  30.0879010  40.9883100  52.5595150  30.8394820  40.6141120
  52.3904640  29.3685480  40.9297900  39.8442800  26.1822250  43.3781820
  39.1176860  25.5627540  43.3107770  39.9051950  26.5762860  42.5079900
  43.4487900  28.3967250  40.1631230  43.9652920  27.7854610  39.6379490
  44.0985280  28.8996030  40.6542240  46.1883400  29.2875740  40.9900210
  46.4761210  29.0330040  40.1133220  46.7006620  28.7353100  41.5805780
  47.4060410  13.0265940  41.5696720  46.6232200  13.5011440  41.8493480
  47.1123340  12.1220770  41.4609900  51.9581480  13.7289040  39.6145810
  52.3989570  13.6734140  38.7667410  51.6889070  14.6447050  39.6855990
  53.8220050  13.3604280  37.6254630  53.7608450  12.4165500  37.4785650
  54.6012080  13.4684370  38.1708090  38.1272800  29.4996640  36.5878580
  37.9594840  28.8667320  37.2860470  37.2607310  29.7056040  36.2372770
  38.7500820  13.3313420  34.0910440  39.5080180  13.4442300  33.5174470
  38.2877990  14.1682620  34.0453870  45.2914630  15.4452690  37.0812750
  44.4789140  15.0709580  36.7408630  45.7956270  14.6897770  37.3833940
  49.7939610  12.1095140  38.3195820  50.3968980  12.6815350  38.7944340
  49.0532600  12.6734580  38.0969720  52.9374210  12.5116700  33.5936100
  53.1324840  13.4100150  33.8603530  52.1504080  12.2803780  34.0869050
  39.7335500  28.1929870  34.0328720  39.2083120  28.5737900  33.3290680
  39.6580080  28.8180640  34.7538430  41.1225970  13.8577470  32.6312410
  41.6518730  13.0707270  32.5020360  41.7554290  14.5368660  32.8647940
  43.3163810  13.5952610  35.6857800  42.6866550  12.8939920  35.8527930
  42.7768950  14.3556740  35.4690960  46.2555760  30.2091840  48.3568410
  47.1823070  29.9736110  48.4004370  46.2406190  31.0363840  47.8754440
  54.4900820  29.7517410  35.3542660  54.6653010  29.0655150  34.7103580
  53.7922390  30.2764460  34.9619330  43.4419370  12.8736590  48.1210290
  43.1603640  13.3770190  47.3571110  43.8239070  12.0758340  47.7552420
  42.3328470  30.1412250  32.9077970  43.0647290  29.8571530  32.3601860
  42.5922140  29.9025530  33.7977350  41.4943260  26.2576980  32.9124300
  40.8652140  26.7262080  33.4610130  41.6091090  25.4126200  33.3470490
  50.0434830  12.2890170  48.6990760  49.9300280  12.6084780  49.5942280
  50.8604570  12.6902680  48.4028040  52.8233320  29.4361700  48.1809450
  53.6158640  28.9410930  47.9735410  53.1166470  30.1151840  48.7885060
  48.9492980  20.3082640  19.0625500  48.8687030  19.3937250  18.7917210
  48.5357400  20.8049710  18.3565210  47.0811020  22.0861660  20.9434770
  46.3053120  21.6062100  21.2333340  47.7323950  21.4067310  20.7690930
  41.0976850  22.3981470  21.8210530  40.2661730  22.1430180  22.2207040
  41.7057830  22.4692240  22.5568450  51.1018450  26.4921850  19.7233900
  50.6399980  25.7209090  20.0521070  51.9144000  26.5187920  20.2286350
  41.0778110  26.4321560  22.0168550  41.3806150  25.5419300  21.8378770
  41.8221700  26.9891780  21.7890800  39.5068800  17.3583360  15.6052920
  38.6185500  17.6999330  15.5032800  39.7909990  17.1583680  14.7133750
  37.4701810  19.9589010  21.4892620  38.0417920  19.1911210  21.4896260
  37.4703350  20.2577770  20.5799230  47.3281760  28.7779860  19.3437890
  46.7093200  29.2337360  18.7732330  48.1833540  28.9331320  18.9427590
  46.5220010  24.7618850  20.9504930  46.4528290  23.8208790  20.7894060
  47.2839870  24.8520260  21.5227500  38.7126680  15.3673370  23.2761550
  38.5329520  14.4699120  23.5564310  38.3106760  15.9145240  23.9508500
  47.5525180  17.5689230  21.1773860  47.9290000  16.6961110  21.0647530
  47.4544690  17.9047930  20.2864300  41.6830190  15.9414860  16.6391300
  41.7896940  16.8418590  16.9460060  40.7722550  15.8932830  16.3485950
  51.3349300  15.0639670  18.1102200  52.1558920  14.5736240  18.1527680
  51.3683380  15.6537330  18.8634040  39.3313350  17.8633870  21.8843890
  40.0123460  18.1272240  22.5031290  39.0161400  17.0234740  22.2181900
  43.5237920  18.9101230  20.9716480  44.0316140  19.4082200  21.6121500
  44.0551160  18.1336430  20.7955840  55.6248850  17.0806420  24.6745830
  54.9201020  17.4688130  24.1560940  55.8906770  17.7756710  25.2766760
  41.8074020  13.5499790  25.2379900  41.8092460  14.0672180  24.4325800
  40.9778330  13.0729970  25.2149830  48.1945110  23.6619100  16.7369800
  47.5762380  24.1268550  16.1732520  48.7068360  24.3546580  17.1539310
  43.0576870  23.1894970  23.4153400  42.7246250  23.8163890  24.0574470
  43.2343550  23.7156850  22.6355070  51.5710780  17.0040050  20.8829740
  50.8666350  17.2924940  21.4632850  51.9322940  17.8140160  20.5229300
  41.4889350  15.2609750  23.2450350  41.8306160  16.1051800  22.9504220
  40.5505160  15.4093490  23.3615690  42.2695970  25.1575770  25.2302580
  42.8869970  25.8326850  24.9487030  41.4089090  25.5663750  25.1390080
  37.5628310  24.3475630  14.1109430  37.1856290  24.8362730  13.3794330
  37.8201380  25.0200910  14.7415960  53.1873560  26.6215180  23.1457220
  52.5037080  27.2914290  23.1373890  53.7267850  26.8195830  22.3802080
  54.6397700  16.4494840  21.2738950  53.6922610  16.4833820  21.4054380
  54.9647690  17.2633790  21.6588310  45.1717240  12.7492020  19.5694940
  45.4792220  12.1938910  18.8530440  44.2417940  12.8836480  19.3867930
  50.7232300  28.4659310  21.8602400  50.7359460  28.0621600  20.9924660
  50.1707520  29.2406600  21.7563830  52.0177720  25.1875530  16.9492570
  51.9074050  24.2449860  17.0741990  52.0145970  25.5491170  17.8355330
  50.1217740  23.3689150  23.1885010  50.5386530  23.1549260  22.3538470
  50.8457560  23.6261940  23.7593630  47.5598000  20.8140850  16.3055060
  46.6327280  20.7478230  16.5343530  47.7122820  21.7520980  16.1910300
  47.5467080  17.0857850  13.3022220  46.6070750  17.2471810  13.3874680
  47.8650340  17.8043530  12.7558210  54.0679840  21.7676370  23.2801250
  53.2398470  21.8369460  22.8051380  54.6630320  22.3530680  22.8117080
  51.5895290  22.3761150  16.8090310  50.9707710  22.0380700  16.1616610
  51.5719740  21.7320910  17.5169500  51.0321850  18.5545690  24.2256120
  50.6193030  19.3799400  24.4796110  50.2997800  17.9690730  24.0332480
  43.1654640  21.3405590  19.0874790  42.7611640  20.6282840  18.5920690
  43.2517760  20.9958830  19.9762830  43.6336340  25.0273150  21.2514000
  43.3364630  24.4218620  20.5721780  44.5836160  25.0650460  21.1403360
  41.8783260  18.1148800  22.8673830  42.4297850  18.2244140  22.0927080
  42.3926770  18.4886400  23.5829060  51.7221950  28.6005020  24.9137100
  51.2452510  29.4077210  24.7209710  51.0383740  27.9483350  25.0663310
  42.7254770  24.7654840  27.9021800  41.8283300  24.9894810  28.1495200
  42.7507640  24.8889780  26.9533200  49.7659990  21.6147960  13.8163060
  50.2053270  20.7770390  13.6700880  50.4788410  22.2477360  13.9027200
  41.5525990  21.6368160  26.4779170  41.4133760  22.5090960  26.8466570
  40.6707350  21.2940970  26.3327110  47.8755370  26.5544030  17.7844300
  48.3151280  27.2968360  17.3699690  47.8142260  26.7970600  18.7083260
  43.3506340  27.5789860  28.6864320  43.3221770  27.9832810  27.8192750
  43.1871310  26.6500220  28.5235920  53.3477130  12.8690770  12.1304100
  53.0349790  12.9617600  13.0303170  54.1089600  13.4471800  12.0801530
  39.8659270  20.2350570  16.5881440  39.7456870  20.9612660  15.9762710
  39.5560160  19.4653480  16.1109350  55.3021160  28.3616960  29.9828490
  55.7780880  28.8399850  30.6617570  55.9228320  28.2934450  29.2573990
  37.5044640  23.4065710  22.3950080  37.5825060  23.5414480  21.4505800
  38.1186320  22.6981600  22.5878200  38.7492270  25.1065900  18.8056260
  38.3420350  25.2480490  17.9509860  39.6405280  24.8226060  18.6027470
  54.7054410  25.5529810  27.1428500  54.8317470  25.3141690  26.2245680
  54.7475790  24.7214350  27.6150580  48.5671150  29.2557810  25.7123310
  49.0815820  29.1665820  26.5145740  47.7240230  29.6017510  26.0051220
  50.5425550  29.5413150  15.1407310  50.3826690  29.2516090  16.0389140
  50.3772260  28.7653280  14.6052540  43.0213930  29.3211680  16.9178930
  42.8456410  28.4047220  16.7046730  42.1669670  29.6798970  17.1576730
  50.2451680  27.0500710  13.7005310  49.5516840  27.0478000  13.0407590
  50.9874540  26.6260030  13.2699480  49.8101610  28.6763420  17.7753800
  50.2658560  27.8952800  18.0892420  50.1494130  29.3870240  18.3194980
  54.5578420  17.6062270  28.1078240  53.9422690  18.1141940  27.5793700
  54.2374840  16.7060600  28.0504180  37.5604160  24.4479880  24.9344540
  37.7235200  23.9785240  24.1163910  38.0256610  23.9403440  25.5993380
  42.3322930  13.5785640  19.9705110  41.8891080  14.3595180  19.6389630
  42.8907920  13.9015530  20.6776050  46.6192740  16.4454160  25.5740430
  46.1572110  16.6537180  26.3860370  46.2170850  15.6313510  25.2711100
  51.6197250  17.6663110  26.7037090  50.7690840  17.3668860  27.0246160
  51.4599040  17.9105120  25.7920910  48.7146960  19.1664860  28.8035880
  49.0400370  18.3328610  28.4638110  49.5027290  19.6893380  28.9514210
  45.4481750  13.1996340  14.8510940  44.8235930  13.1956210  15.5764250
  45.3611870  12.3327300  14.4546910  44.3698830  14.1232970  21.8294710
  44.6671160  15.0295800  21.7486730  44.9184390  13.6351750  21.2154280
  42.1237150  18.7019210  17.6986360  41.8978070  18.4856380  18.6032980
  41.3429680  19.1347670  17.3532330  49.3534910  18.7082580  16.2977010
  48.7543800  19.4318380  16.1140630  49.9014520  18.6459360  15.5153460
  44.5636360  19.6004790  28.3646630  44.4679960  18.6599520  28.2147030
  45.4068340  19.8219860  27.9694700  47.9599780  17.3446120  18.3280290
  48.3529350  17.6618320  17.5148980  48.3216630  16.4658000  18.4424810
  39.6946900  16.0118460  26.5180410  39.3010290  16.8593670  26.7253190
  39.0065300  15.3744830  26.7089050  46.2691950  16.0953430  29.5877150
  45.5790270  15.9025630  30.2223240  47.0124250  16.3788070  30.1201450
  36.9963950  13.9346920  20.5510490  36.7077000  14.5049780  21.2635470
  37.7409710  13.4551370  20.9141720  37.1834180  17.8767040  11.7613210
  37.1008850  18.8197800  11.9028200  36.8317240  17.7341950  10.8825560
  48.5454920  19.9351870  22.4231070  47.8136040  20.4438680  22.7721170
  48.1479260  19.1181850  22.1219850  44.9832310  16.6106070  20.8283560
  44.9868370  16.1696020  19.9788100  45.8783430  16.9323400  20.9355380
  40.8334690  16.4932560  19.7877770  40.4934740  16.9707790  20.5444820
  40.0712010  16.0397680  19.4278870  45.0452460  17.6118150  13.8190320
  45.1665280  17.5704630  14.7676140  44.6600970  18.4742300  13.6637050
  49.0080830  15.3885550  21.8354010  49.0253570  15.8394200  22.6795860
  48.7596410  14.4891190  22.0487450  44.0573960  19.9219290  13.2173620
  43.4890860  19.4737540  12.5909530  44.7662960  20.2812070  12.6838770
  52.4351580  12.8017730  27.6740390  52.7597350  12.0707390  28.1998370
  52.4708090  12.4831370  26.7721380  39.1343140  23.8231310  27.0940350
  38.7497930  23.1824980  27.6923310  39.4455330  24.5267430  27.6635080
  45.2840280  20.6707850  22.5748970  45.6510410  20.1966420  23.3210310
  45.0945340  21.5449420  22.9157310  38.1480770  15.4151540  18.7042440
  37.8627690  15.0507210  19.5421060  38.0859630  14.6832000  18.0905580
  43.0739650  19.7116490  24.8933180  42.7696720  20.5908470  25.1183540
  44.0286110  19.7716280  24.9290620  41.6021440  23.9177480  15.4900030
  40.8283700  23.3775100  15.3298750  42.3316070  23.3984090  15.1517790
  52.3609420  22.9142840  21.2826420  53.0808540  23.4098130  20.8922530
  52.1591240  22.2360730  20.6380290  47.8219360  14.3080800  15.4255810
  47.0083970  13.8093970  15.3501120  47.6281310  15.1479050  15.0092160
  47.7428220  22.9851900  27.1695420  47.6765530  22.0647570  26.9153010
  47.1133360  23.0827340  27.8840060  50.5367750  18.6800450  13.7217970
  51.4247370  18.9917680  13.5469310  50.5072840  17.8072700  13.3298550
  41.6458840  23.5857860  19.1278840  42.1637510  22.7826120  19.0735730
  41.1942860  23.5237000  19.9695670  46.5328340  24.8524140  14.4006140
  46.8744040  25.5966370  13.9049460  45.7041050  25.1655260  14.7630970
  39.1303380  20.5519230  26.0404540  38.7718320  21.2173080  26.6277880
  38.8357940  19.7202780  26.4117160  42.3316500  21.0103470  28.9244090
  42.0316640  21.1560650  28.0271910  43.1027740  20.4508760  28.8317480
  47.6744950  25.8072470  26.9199220  47.6889490  24.8753430  26.7018130
  46.9670050  25.8932230  27.5588990  52.8082020  19.9912290  13.1897830
  52.7245740  20.4226510  12.3394270  53.5276210  20.4510640  13.6224650
  53.8856160  22.4479810  26.2667800  53.1604350  23.0408590  26.0697190
  54.4131620  22.4403350  25.4681170  53.8369270  26.8454550  15.9179960
  53.1945430  26.1910170  16.1923680  53.4499930  27.2509640  15.1420630
  49.4155750  24.1739980  19.7651650  49.7679570  23.5768110  19.1053020
  48.5318080  23.8484210  19.9359900  45.5019030  24.9337670  17.1722060
  46.1890160  25.4806880  17.5529650  44.7151450  25.4778400  17.2071670
  37.6411430  20.5510490  12.6639140  38.5106280  20.8335290  12.9475060
  37.1501750  21.3646360  12.5487950  44.8046240  21.9383700  16.7847420
  45.2609020  22.7488950  17.0107610  44.4534450  21.6206840  17.6165910
  47.1078850  27.4490040  24.0139720  47.7521070  27.6549420  24.6913140
  47.4708290  26.6878440  23.5610570  40.7058020  12.2821350  17.2569940
  40.5772650  12.2739250  18.2054860  39.8820040  12.6204440  16.9060950
  48.3810930  25.4522390  22.7317170  49.0233160  24.7515550  22.8449340
  48.9060280  26.2320830  22.5514060  52.2266650  25.7371010  12.4556310
  52.0004230  25.0201450  13.0480950  51.8362850  25.4883450  11.6178060
  50.1548550  26.2517290  25.9353230  50.4904790  26.8383980  26.6131150
  49.2348890  26.1210000  26.1651020  38.0082680  29.7637870  13.2300770
  38.3680320  30.3627210  12.5758040  37.8675020  30.3097760  14.0035800
  37.7051950  14.0412470  26.7176640  36.9910470  14.2409390  27.3229250
  38.1246990  13.2652040  27.0891440  51.8082900  23.6542950  14.1170470
  51.5204600  24.1155640  14.9048350  52.6035070  23.1940720  14.3854690
  37.9924540  28.0292730  27.7043170  38.1015660  27.0887470  27.5638560
  37.3405100  28.2947480  27.0556900  45.9837130  26.3008620  29.1041290
  45.6634000  25.5817860  29.6486980  45.3095490  26.9763690  29.1777350
  44.0251300  27.1469070  14.0474440  44.0161400  27.8798760  13.4318950
  43.1049660  26.9000650  14.1401400  39.6257940  22.3683960  14.7921200
  39.0185890  23.1082860  14.8016500  40.1007290  22.4583320  13.9659400
  49.1990730  16.5334780  24.4678090  49.5671550  15.7129990  24.7957660
  48.3388930  16.5936670  24.8833740  52.5652760  15.4891720  15.2765650
  51.9365920  15.5937390  14.5623880  52.0704680  15.7088500  16.0659530
  47.0110900  27.2097310  12.7099630  47.1122880  27.0061300  11.7801610
  46.1112640  26.9555590  12.9147410  44.5336790  17.7677670  16.6923530
  43.8252940  18.2364010  17.1337140  44.8181270  17.1099680  17.3268720
  46.1592720  19.1874370  24.6916060  46.6577970  19.6620190  25.3567910
  46.3015670  18.2637890  24.8986090  48.5652220  14.4928330  18.1319320
  48.4420000  14.5114460  17.1828830  49.5136780  14.5407270  18.2517720
  45.6529010  29.7283630  17.4047300  45.9070510  29.6905020  16.4826670
  44.7041490  29.6016960  17.3975550  42.7371810  16.0762750  14.0674240
  43.5862340  16.5132900  14.0014430  42.3703080  16.3883010  14.8946300
  53.3659580  15.4042330  25.5344450  52.8633180  16.1447730  25.8738260
  54.1816240  15.7926330  25.2181240  51.6581590  20.6475510  18.9805810
  50.7171730  20.6625740  19.1553500  51.9725660  19.8611470  19.4266110
  41.6363230  22.3295110  12.5409770  42.4026500  22.2176470  13.1035200
  41.7137920  21.6333080  11.8886540  40.3309990  19.7620180  13.2242660
  40.4113580  18.8147690  13.3360060  41.2229740  20.0927060  13.3303320
  53.6607170  27.8184360  20.6560070  53.7854590  28.6415530  21.1283880
  54.5272730  27.6075090  20.3084220  41.1324700  29.9115570  20.3277200
  41.8687180  29.3631030  20.5985770  41.5165620  30.7771580  20.1883190
  38.0170180  25.9789140  16.2018710  37.0909960  26.2210280  16.1924120
  38.4826610  26.8063400  16.0803460  40.1382980  29.0961640  29.5162780
  40.9395710  29.4173690  29.9298180  39.6234800  28.7357220  30.2382690
  44.2427010  29.0845880  12.1502770  45.0355620  29.3734710  11.6984560
  43.7231360  28.6538050  11.4715250  48.9747610  25.2041510  29.4638190
  48.3685770  25.2273110  28.7233940  48.6701720  24.4724550  30.0005440
  50.4047980  28.9321800  28.0747600  51.3569730  28.8479820  28.0247840
  50.2576200  29.5963510  28.7481390  53.2957180  28.3116010  13.5739510
  53.0098690  27.8981150  12.7593690  53.0976730  29.2403720  13.4540030
  37.8580790  21.5835100  28.4598830  38.3619810  21.0042380  29.0315060
  37.1188210  21.8675330  28.9975200  44.7604410  24.3049290  12.0145120
  44.6555050  23.6901640  12.7406500  44.5928630  23.7815180  11.2308130
  44.9118730  22.9906090  27.9934350  44.1464400  23.5591090  27.9089020
  45.0934690  22.6982300  27.1002580  48.0007140  23.3669320  12.6187110
  47.4517240  23.8138620  13.2629850  48.6226400  22.8618570  13.1424780
  52.0542080  24.7211420  28.5509370  52.7951550  25.0587180  28.0476830
  51.2914760  24.8903480  27.9979140  39.8903870  19.7264690  29.3548900
  39.9309210  19.4278560  30.2634130  40.7449370  20.1272300  29.1956420
  43.6682260  22.3260240  14.5152410  44.0898680  22.1600110  15.3583800
  43.7933100  21.5160470  14.0207550  41.8309680  18.3056790  27.3223390
  41.3006140  17.8147740  26.6946730  42.4997750  18.7340990  26.7881320
  46.1809900  21.3497850  11.7629510  46.7015560  20.6346870  11.3970660
  46.8278300  21.9883720  12.0630020  50.7287740  22.7726250  27.0864580
  51.1428760  22.9271330  27.9355000  49.7938740  22.8981470  27.2490360
  51.2009910  20.1122410  29.0903730  51.7830680  19.3574730  29.0024210
  51.3771680  20.6429850  28.3135210  42.3181980  15.2719160  27.4020680
  42.2238850  14.6539910  26.6771550  41.7379370  15.9985450  27.1750590
  45.0843420  13.8292400  24.4348070  44.6360720  13.8516660  23.5893620
  44.4508620  13.4311420  25.0318370  45.4902970  22.7246730  25.0560510
  45.9091080  23.5679460  24.8836750  44.5711600  22.8618770  24.8267290
  47.8266870  20.4562910  26.4398350  47.9463080  19.8604050  27.1793190
  48.6860870  20.4932600  26.0199650  50.1654770  21.0100100  25.0160860
  49.6389990  21.5342720  24.4126000  50.5086110  21.6427490  25.6470590
  42.5641160  18.3993470  11.4610570  42.3630220  17.5360830  11.8223910
  42.3933210  18.3126830  10.5232170  43.3410390  29.0299740  26.1718240
  42.8031480  29.7545800  25.8526940  43.5944350  28.5530080  25.3815580
  44.5935640  16.9984260  27.6974170  45.1835330  16.6900110  28.3851990
  43.7755880  16.5264010  27.8534070  49.4129070  16.6150070  27.9307190
  48.7244590  15.9531610  27.8657180  50.1335090  16.1688340  28.3755650
  50.0429470  13.2101700  13.9897450  50.3231760  12.3669600  14.3456870
  49.2695200  13.4424810  14.5036200  41.3623960  15.4994090  11.4488450
  41.6649860  15.5061520  10.5407600  42.1018550  15.1491950  11.9456110
  46.1972600  30.2650950  26.4304890  46.1231300  31.1686090  26.7377260
  45.2951440  29.9462850  26.4026960  44.5808890  14.4428710  12.4344650
  44.2330890  13.7652700  11.8547100  44.7821660  13.9818220  13.2488040
  46.7457930  29.4309460  14.0531250  47.6408720  29.7694430  14.0750010
  46.7775560  28.7088870  13.4255530  40.3854090  24.8036510  12.2818250
  40.8228960  25.3466180  12.9375830  40.8701820  23.9783460  12.2914590
  37.5999890  27.5925540  19.7338510  37.9302900  26.7246600  19.5017150
  38.0290890  27.7984060  20.5643470  42.1961810  25.9234550  17.3940480
  41.8957350  25.7999520  18.2944390  42.0899300  25.0643140  16.9856210
  38.0890100  28.4596130  22.4720140  37.6521090  28.6396930  23.3044290
  38.6567780  29.2170750  22.3301860  53.7252280  27.9613130  26.7597450
  53.1254270  28.0205690  26.0161370  53.8546180  27.0218110  26.8894300
  54.9653730  25.7030950  12.0967160  54.1346690  25.7707600  12.5674390
  55.1425560  26.5935070  11.7934020  54.4210190  22.4478430  14.6001360
  55.1829100  23.0175080  14.7061050  54.4364560  21.8805630  15.3709670
  37.9214530  20.9716360  18.8309020  37.2663370  20.7028000  18.1868720
  38.7592480  20.8620840  18.3811000  55.4270160  23.3028530  19.4443290
  55.7978990  22.5195850  19.0379260  56.0672090  23.9917630  19.2660590
  52.4103920  24.6865110  24.8573610  51.5963760  25.1162270  25.1199400
  52.8178120  25.2983520  24.2442660  54.4729360  22.7412800  11.7573880
  54.7478200  23.6491680  11.6293100  54.2840100  22.6775330  12.6935870
  50.8704970  15.7657650  13.0527510  51.2889850  15.5788630  12.2124170
  50.5641030  14.9136700  13.3630440  54.3694700  20.6781790  16.7503310
  53.9938300  19.9109720  16.3184600  53.6397820  21.0604490  17.2378240
  38.9590460  21.3568930  23.3712360  39.3263500  21.2696330  24.2508380
  38.3901280  20.5935480  23.2719220  53.7594320  19.8253310  26.3842830
  53.5280410  19.5966060  25.4840780  54.0198870  20.7452860  26.3387720
  38.5106460  18.2678020  27.2770780  37.6162510  18.2344780  27.6164490
  39.0504010  18.4664810  28.0422030  52.1982390  15.0509740  29.1622530
  53.0752570  15.0593140  29.5456530  52.2103230  14.3140580  28.5514880
  37.1352610  18.1815290  14.7734350  36.2316690  18.4445490  14.5986010
  37.6193230  18.4526460  13.9934310  53.6445660  18.9039280  20.0510550
  54.1683140  18.4101930  19.4200720  54.2305080  19.0389640  20.7958120
  53.8235380  18.9879150  23.5730100  52.8738090  18.9542690  23.6875090
  54.0048390  19.8979260  23.3379870  39.6779820  17.2380830  12.6828730
  40.3871520  16.8164050  12.1976010  38.9619760  17.3056060  12.0512080
  39.3253980  13.2920160  11.7231380  40.0482110  13.8329100  12.0412600
  39.5978500  13.0183580  10.8472920  53.1345630  18.1612630  15.9902960
  53.6304750  17.9283500  16.7751840  52.9361700  17.3224470  15.5740600
  39.0146170  12.5426350  21.6254000  39.6622360  11.9923730  21.1849160
  39.4348010  12.7969500  22.4469810  54.5632790  16.7973580  18.5240640
  54.4532070  16.6429620  19.4622910  55.3240380  16.2694520  18.2816050
  52.9098510  12.7367710  24.9823640  53.5470730  13.3501850  25.3482830
  53.0573400  12.7728370  24.0372870  55.4523060  14.6281500  11.7646780
  56.3772370  14.4962680  11.5565070  55.4298850  14.7074320  12.7183230
  55.5261550  15.3992160  14.3903490  54.7313050  15.3337280  14.9196400
  55.7304830  16.3342800  14.3788840  52.4679970  29.4383710  18.3841880
  53.0639040  29.1168280  17.7076300  52.7258120  28.9655530  19.1755150
  38.7678170  12.6982020  24.3679320  38.4192990  13.1545840  25.1337500
  38.4365870  11.8039150  24.4501750  40.3742540  25.8701620  28.5332510
  40.3312170  25.4994530  29.4146970  40.5053550  26.8079190  28.6734330
  44.0748570  27.4261210  24.1342230  43.8339930  27.6935770  23.2472750
  45.0151210  27.5966940  24.1893090  46.2802990  13.8893900  27.8898740
  46.2191880  14.4815730  28.6394150  47.2203370  13.7819860  27.7449000
  48.9177550  13.5463960  27.5291030  49.5317960  13.8643250  26.8672110
  49.4627110  13.0612550  28.1486890  55.3352730  29.4455590  24.9352870
  54.8411010  29.8424460  24.2180000  54.7266020  28.8204800  25.3290150
  39.4398810  12.2258220  27.6430090  39.9881800  12.0446270  26.8796200
  39.5054120  11.4352330  28.1786400  40.2130570  28.8163870  25.6530290
  39.6190890  28.6848570  26.3920330  40.2054410  27.9802010  25.1872390
  49.6585590  12.1096100  23.8560320  48.7845430  12.4431210  23.6533250
  49.5496340  11.6369280  24.6812190  50.5657570  14.3166970  25.2402040
  50.2370930  13.5018730  24.8603770  51.5139870  14.2736780  25.1167730
  53.0192180  30.0879010  22.2139610  52.5595150  30.8394820  21.8397630
  52.3904640  29.3685480  22.1554410  39.8442800  26.1822250  24.6038330
  39.1176860  25.5627540  24.5364280  39.9051950  26.5762860  23.7336410
  43.4487900  28.3967250  21.3887740  43.9652920  27.7854610  20.8636000
  44.0985280  28.8996030  21.8798750  46.1883400  29.2875740  22.2156720
  46.4761210  29.0330040  21.3389730  46.7006620  28.7353100  22.8062290
  47.4060410  13.0265940  22.7953230  46.6232200  13.5011440  23.0749990
  47.1123340  12.1220770  22.6866410  51.9581480  13.7289040  20.8402320
  52.3989570  13.6734140  19.9923920  51.6889070  14.6447050  20.9112500
  53.8220050  13.3604280  18.8511140  53.7608450  12.4165500  18.7042160
  54.6012080  13.4684370  19.3964600  38.1272800  29.4996640  17.8135090
  37.9594840  28.8667320  18.5116980  37.2607310  29.7056040  17.4629280
  38.7500820  13.3313420  15.3166950  39.5080180  13.4442300  14.7430980
  38.2877990  14.1682620  15.2710380  45.2914630  15.4452690  18.3069260
  44.4789140  15.0709580  17.9665140  45.7956270  14.6897770  18.6090450
  49.7939610  12.1095140  19.5452330  50.3968980  12.6815350  20.0200850
  49.0532600  12.6734580  19.3226230  52.9374210  12.5116700  14.8192610
  53.1324840  13.4100150  15.0860040  52.1504080  12.2803780  15.3125560
  39.7335500  28.1929870  15.2585230  39.2083120  28.5737900  14.5547190
  39.6580080  28.8180640  15.9794940  41.1225970  13.8577470  13.8568920
  41.6518730  13.0707270  13.7276870  41.7554290  14.5368660  14.0904450
  43.3163810  13.5952610  16.9114310  42.6866550  12.8939920  17.0784440
  42.7768950  14.3556740  16.6947470  46.2555760  30.2091840  29.5824920
  47.1823070  29.9736110  29.6260880  46.2406190  31.0363840  29.1010950
  54.4900820  29.7517410  16.5799170  54.6653010  29.0655150  15.9360090
  53.7922390  30.2764460  16.1875840  43.4419370  12.8736590  29.3466800
  43.1603640  13.3770190  28.5827620  43.8239070  12.0758340  28.9808930
  42.3328470  30.1412250  14.1334480  43.0647290  29.8571530  13.5858370
  42.5922140  29.9025530  15.0233860  41.4943260  26.2576980  14.1380810
  40.8652140  26.7262080  14.6866640  41.6091090  25.4126200  14.5727000
  50.0434830  12.2890170  29.9247270  49.9300280  12.6084780  30.8198790
  50.8604570  12.6902680  29.6284550  52.8233320  29.4361700  29.4065960
  53.6158640  28.9410930  29.1991920  53.1166470  30.1151840  30.0141570
  47.0811020  22.0861660   2.1691280  46.3053120  21.6062100   2.4589850
  47.7323950  21.4067310   1.9947440  41.0976850  22.3981470   3.0467040
  40.2661730  22.1430180   3.4463550  41.7057830  22.4692240   3.7824960
  41.0778110  26.4321560   3.2425060  41.3806150  25.5419300   3.0635280
  41.8221700  26.9891780   3.0147310  37.4701810  19.9589010   2.7149130
  38.0417920  19.1911210   2.7152770  37.4703350  20.2577770   1.8055740
  46.5220010  24.7618850   2.1761440  46.4528290  23.8208790   2.0150570
  47.2839870  24.8520260   2.7484010  38.7126680  15.3673370   4.5018060
  38.5329520  14.4699120   4.7820820  38.3106760  15.9145240   5.1765010
  39.3313350  17.8633870   3.1100400  40.0123460  18.1272240   3.7287800
  39.0161400  17.0234740   3.4438410  43.5237920  18.9101230   2.1972990
  44.0316140  19.4082200   2.8378010  44.0551160  18.1336430   2.0212350
  55.6248850  17.0806420   5.9002340  54.9201020  17.4688130   5.3817450
  55.8906770  17.7756710   6.5023270  41.8074020  13.5499790   6.4636410
  41.8092460  14.0672180   5.6582310  40.9778330  13.0729970   6.4406340
  43.0576870  23.1894970   4.6409910  42.7246250  23.8163890   5.2830980
  43.2343550  23.7156850   3.8611580  51.5710780  17.0040050   2.1086250
  50.8666350  17.2924940   2.6889360  51.9322940  17.8140160   1.7485810
  41.4889350  15.2609750   4.4706860  41.8306160  16.1051800   4.1760730
  40.5505160  15.4093490   4.5872200  42.2695970  25.1575770   6.4559090
  42.8869970  25.8326850   6.1743540  41.4089090  25.5663750   6.3646590
  53.1873560  26.6215180   4.3713730  52.5037080  27.2914290   4.3630400
  53.7267850  26.8195830   3.6058590  54.6397700  16.4494840   2.4995460
  53.6922610  16.4833820   2.6310890  54.9647690  17.2633790   2.8844820
  50.7232300  28.4659310   3.0858910  50.7359460  28.0621600   2.2181170
  50.1707520  29.2406600   2.9820340  50.1217740  23.3689150   4.4141520
  50.5386530  23.1549260   3.5794980  50.8457560  23.6261940   4.9850140
  54.0679840  21.7676370   4.5057760  53.2398470  21.8369460   4.0307890
  54.6630320  22.3530680   4.0373590  51.0321850  18.5545690   5.4512630
  50.6193030  19.3799400   5.7052620  50.2997800  17.9690730   5.2588990
  43.6336340  25.0273150   2.4770510  43.3364630  24.4218620   1.7978290
  44.5836160  25.0650460   2.3659870  41.8783260  18.1148800   4.0930340
  42.4297850  18.2244140   3.3183590  42.3926770  18.4886400   4.8085570
  51.7221950  28.6005020   6.1393610  51.2452510  29.4077210   5.9466220
  51.0383740  27.9483350   6.2919820  42.7254770  24.7654840   9.1278310
  41.8283300  24.9894810   9.3751710  42.7507640  24.8889780   8.1789710
  41.5525990  21.6368160   7.7035680  41.4133760  22.5090960   8.0723080
  40.6707350  21.2940970   7.5583620  43.3506340  27.5789860   9.9120830
  43.3221770  27.9832810   9.0449260  43.1871310  26.6500220   9.7492430
  55.3021160  28.3616960  11.2085000  55.7780880  28.8399850  11.8874080
  55.9228320  28.2934450  10.4830500  37.5044640  23.4065710   3.6206590
  37.5825060  23.5414480   2.6762310  38.1186320  22.6981600   3.8134710
  54.7054410  25.5529810   8.3685010  54.8317470  25.3141690   7.4502190
  54.7475790  24.7214350   8.8407090  48.5671150  29.2557810   6.9379820
  49.0815820  29.1665820   7.7402250  47.7240230  29.6017510   7.2307730
  54.5578420  17.6062270   9.3334750  53.9422690  18.1141940   8.8050210
  54.2374840  16.7060600   9.2760690  37.5604160  24.4479880   6.1601050
  37.7235200  23.9785240   5.3420420  38.0256610  23.9403440   6.8249890
  46.6192740  16.4454160   6.7996940  46.1572110  16.6537180   7.6116880
  46.2170850  15.6313510   6.4967610  51.6197250  17.6663110   7.9293600
  50.7690840  17.3668860   8.2502670  51.4599040  17.9105120   7.0177420
  48.7146960  19.1664860  10.0292390  49.0400370  18.3328610   9.6894620
  49.5027290  19.6893380  10.1770720  44.3698830  14.1232970   3.0551220
  44.6671160  15.0295800   2.9743240  44.9184390  13.6351750   2.4410790
  44.5636360  19.6004790   9.5903140  44.4679960  18.6599520   9.4403540
  45.4068340  19.8219860   9.1951210  39.6946900  16.0118460   7.7436920
  39.3010290  16.8593670   7.9509700  39.0065300  15.3744830   7.9345560
  46.2691950  16.0953430  10.8133660  45.5790270  15.9025630  11.4479750
  47.0124250  16.3788070  11.3457960  36.9963950  13.9346920   1.7767000
  36.7077000  14.5049780   2.4891980  37.7409710  13.4551370   2.1398230
  48.5454920  19.9351870   3.6487580  47.8136040  20.4438680   3.9977680
  48.1479260  19.1181850   3.3476360  49.0080830  15.3885550   3.0610520
  49.0253570  15.8394200   3.9052370  48.7596410  14.4891190   3.2743960
  52.4351580  12.8017730   8.8996900  52.7597350  12.0707390   9.4254880
  52.4708090  12.4831370   7.9977890  39.1343140  23.8231310   8.3196860
  38.7497930  23.1824980   8.9179820  39.4455330  24.5267430   8.8891590
  45.2840280  20.6707850   3.8005480  45.6510410  20.1966420   4.5466820
  45.0945340  21.5449420   4.1413820  43.0739650  19.7116490   6.1189690
  42.7696720  20.5908470   6.3440050  44.0286110  19.7716280   6.1547130
  52.3609420  22.9142840   2.5082930  53.0808540  23.4098130   2.1179040
  52.1591240  22.2360730   1.8636800  47.7428220  22.9851900   8.3951930
  47.6765530  22.0647570   8.1409520  47.1133360  23.0827340   9.1096570
  39.1303380  20.5519230   7.2661050  38.7718320  21.2173080   7.8534390
  38.8357940  19.7202780   7.6373670  42.3316500  21.0103470  10.1500600
  42.0316640  21.1560650   9.2528420  43.1027740  20.4508760  10.0573990
  47.6744950  25.8072470   8.1455730  47.6889490  24.8753430   7.9274640
  46.9670050  25.8932230   8.7845500  53.8856160  22.4479810   7.4924310
  53.1604350  23.0408590   7.2953700  54.4131620  22.4403350   6.6937680
  47.1078850  27.4490040   5.2396230  47.7521070  27.6549420   5.9169650
  47.4708290  26.6878440   4.7867080  48.3810930  25.4522390   3.9573680
  49.0233160  24.7515550   4.0705850  48.9060280  26.2320830   3.7770570
  50.1548550  26.2517290   7.1609740  50.4904790  26.8383980   7.8387660
  49.2348890  26.1210000   7.3907530  37.7051950  14.0412470   7.9433150
  36.9910470  14.2409390   8.5485760  38.1246990  13.2652040   8.3147950
  37.9924540  28.0292730   8.9299680  38.1015660  27.0887470   8.7895070
  37.3405100  28.2947480   8.2813410  45.9837130  26.3008620  10.3297800
  45.6634000  25.5817860  10.8743490  45.3095490  26.9763690  10.4033860
  49.1990730  16.5334780   5.6934600  49.5671550  15.7129990   6.0214170
  48.3388930  16.5936670   6.1090250  46.1592720  19.1874370   5.9172570
  46.6577970  19.6620190   6.5824420  46.3015670  18.2637890   6.1242600
  53.3659580  15.4042330   6.7600960  52.8633180  16.1447730   7.0994770
  54.1816240  15.7926330   6.4437750  40.1382980  29.0961640  10.7419290
  40.9395710  29.4173690  11.1554690  39.6234800  28.7357220  11.4639200
  48.9747610  25.2041510  10.6894700  48.3685770  25.2273110   9.9490450
  48.6701720  24.4724550  11.2261950  50.4047980  28.9321800   9.3004110
  51.3569730  28.8479820   9.2504350  50.2576200  29.5963510   9.9737900
  37.8580790  21.5835100   9.6855340  38.3619810  21.0042380  10.2571570
  37.1188210  21.8675330  10.2231710  44.9118730  22.9906090   9.2190860
  44.1464400  23.5591090   9.1345530  45.0934690  22.6982300   8.3259090
  52.0542080  24.7211420   9.7765880  52.7951550  25.0587180   9.2733340
  51.2914760  24.8903480   9.2235650  39.8903870  19.7264690  10.5805410
  39.9309210  19.4278560  11.4890640  40.7449370  20.1272300  10.4212930
  41.8309680  18.3056790   8.5479900  41.3006140  17.8147740   7.9203240
  42.4997750  18.7340990   8.0137830  50.7287740  22.7726250   8.3121090
  51.1428760  22.9271330   9.1611510  49.7938740  22.8981470   8.4746870
  51.2009910  20.1122410  10.3160240  51.7830680  19.3574730  10.2280720
  51.3771680  20.6429850   9.5391720  42.3181980  15.2719160   8.6277190
  42.2238850  14.6539910   7.9028060  41.7379370  15.9985450   8.4007100
  45.0843420  13.8292400   5.6604580  44.6360720  13.8516660   4.8150130
  44.4508620  13.4311420   6.2574880  45.4902970  22.7246730   6.2817020
  45.9091080  23.5679460   6.1093260  44.5711600  22.8618770   6.0523800
  47.8266870  20.4562910   7.6654860  47.9463080  19.8604050   8.4049700
  48.6860870  20.4932600   7.2456160  50.1654770  21.0100100   6.2417370
  49.6389990  21.5342720   5.6382510  50.5086110  21.6427490   6.8727100
  43.3410390  29.0299740   7.3974750  42.8031480  29.7545800   7.0783450
  43.5944350  28.5530080   6.6072090  44.5935640  16.9984260   8.9230680
  45.1835330  16.6900110   9.6108500  43.7755880  16.5264010   9.0790580
  49.4129070  16.6150070   9.1563700  48.7244590  15.9531610   9.0913690
  50.1335090  16.1688340   9.6012160  46.1972600  30.2650950   7.6561400
  46.1231300  31.1686090   7.9633770  45.2951440  29.9462850   7.6283470
  38.0890100  28.4596130   3.6976650  37.6521090  28.6396930   4.5300800
  38.6567780  29.2170750   3.5558370  53.7252280  27.9613130   7.9853960
  53.1254270  28.0205690   7.2417880  53.8546180  27.0218110   8.1150810
  52.4103920  24.6865110   6.0830120  51.5963760  25.1162270   6.3455910
  52.8178120  25.2983520   5.4699170  38.9590460  21.3568930   4.5968870
  39.3263500  21.2696330   5.4764890  38.3901280  20.5935480   4.4975730
  53.7594320  19.8253310   7.6099340  53.5280410  19.5966060   6.7097290
  54.0198870  20.7452860   7.5644230  38.5106460  18.2678020   8.5027290
  37.6162510  18.2344780   8.8421000  39.0504010  18.4664810   9.2678540
  52.1982390  15.0509740  10.3879040  53.0752570  15.0593140  10.7713040
  52.2103230  14.3140580   9.7771390  53.8235380  18.9879150   4.7986610
  52.8738090  18.9542690   4.9131600  54.0048390  19.8979260   4.5636380
  39.0146170  12.5426350   2.8510510  39.6622360  11.9923730   2.4105670
  39.4348010  12.7969500   3.6726320  52.9098510  12.7367710   6.2080150
  53.5470730  13.3501850   6.5739340  53.0573400  12.7728370   5.2629380
  38.7678170  12.6982020   5.5935830  38.4192990  13.1545840   6.3594010
  38.4365870  11.8039150   5.6758260  40.3742540  25.8701620   9.7589020
  40.3312170  25.4994530  10.6403480  40.5053550  26.8079190   9.8990840
  44.0748570  27.4261210   5.3598740  43.8339930  27.6935770   4.4729260
  45.0151210  27.5966940   5.4149600  46.2802990  13.8893900   9.1155250
  46.2191880  14.4815730   9.8650660  47.2203370  13.7819860   8.9705510
  48.9177550  13.5463960   8.7547540  49.5317960  13.8643250   8.0928620
  49.4627110  13.0612550   9.3743400  55.3352730  29.4455590   6.1609380
  54.8411010  29.8424460   5.4436510  54.7266020  28.8204800   6.5546660
  39.4398810  12.2258220   8.8686600  39.9881800  12.0446270   8.1052710
  39.5054120  11.4352330   9.4042910  40.2130570  28.8163870   6.8786800
  39.6190890  28.6848570   7.6176840  40.2054410  27.9802010   6.4128900
  49.6585590  12.1096100   5.0816830  48.7845430  12.4431210   4.8789760
  49.5496340  11.6369280   5.9068700  50.5657570  14.3166970   6.4658550
  50.2370930  13.5018730   6.0860280  51.5139870  14.2736780   6.3424240
  53.0192180  30.0879010   3.4396120  52.5595150  30.8394820   3.0654140
  52.3904640  29.3685480   3.3810920  39.8442800  26.1822250   5.8294840
  39.1176860  25.5627540   5.7620790  39.9051950  26.5762860   4.9592920
  43.4487900  28.3967250   2.6144250  43.9652920  27.7854610   2.0892510
  44.0985280  28.8996030   3.1055260  46.1883400  29.2875740   3.4413230
  46.4761210  29.0330040   2.5646240  46.7006620  28.7353100   4.0318800
  47.4060410  13.0265940   4.0209740  46.6232200  13.5011440   4.3006500
  47.1123340  12.1220770   3.9122920  46.2555760  30.2091840  10.8081430
  47.1823070  29.9736110  10.8517390  46.2406190  31.0363840  10.3267460
  43.4419370  12.8736590  10.5723310  43.1603640  13.3770190   9.8084130
  43.8239070  12.0758340  10.2065440  50.0434830  12.2890170  11.1503780
  49.9300280  12.6084780  12.0455300  50.8604570  12.6902680  10.8541060
  52.8233320  29.4361700  10.6322470  53.6158640  28.9410930  10.4248430
  53.1166470  30.1151840  11.2398080  51.1018450   7.7178360  94.8207860
  50.6399980   6.9465600  95.1495030  51.9144000   7.7444430  95.3260310
  47.3281760  10.0036370  94.4411850  46.7093200  10.4593870  93.8706290
  48.1833540  10.1587830  94.0401550  48.1945110   4.8875610  91.8343760
  47.5762380   5.3525060  91.2706480  48.7068360   5.5803090  92.2513270
  37.5628310   5.5732140  89.2083390  37.1856290   6.0619240  88.4768290
  37.8201380   6.2457420  89.8389920  52.0177720   6.4132040  92.0466530
  51.9074050   5.4706370  92.1715950  52.0145970   6.7747680  92.9329290
  47.5598000   2.0397360  91.4029020  46.6327280   1.9734740  91.6317490
  47.7122820   2.9777490  91.2884260  51.5895290   3.6017660  91.9064270
  50.9707710   3.2637210  91.2590570  51.5719740   2.9577420  92.6143460
  43.1654640   2.5662100  94.1848750  42.7611640   1.8539350  93.6894650
  43.2517760   2.2215340  95.0736790  49.7659990   2.8404470  88.9137020
  50.2053270   2.0026900  88.7674840  50.4788410   3.4733870  89.0001160
  47.8755370   7.7800540  92.8818260  48.3151280   8.5224870  92.4673650
  47.8142260   8.0227110  93.8057220  38.7492270   6.3322410  93.9030220
  38.3420350   6.4737000  93.0483820  39.6405280   6.0482570  93.7001430
  50.5425550  10.7669660  90.2381270  50.3826690  10.4772600  91.1363100
  50.3772260   9.9909790  89.7026500  43.0213930  10.5468190  92.0152890
  42.8456410   9.6303730  91.8020690  42.1669670  10.9055480  92.2550690
  50.2451680   8.2757220  88.7979270  49.5516840   8.2734510  88.1381550
  50.9874540   7.8516540  88.3673440  49.8101610   9.9019930  92.8727760
  50.2658560   9.1209310  93.1866380  50.1494130  10.6126750  93.4168940
  41.6021440   5.1433990  90.5873990  40.8283700   4.6031610  90.4272710
  42.3316070   4.6240600  90.2491750  41.6458840   4.8114370  94.2252800
  42.1637510   4.0082630  94.1709690  41.1942860   4.7493510  95.0669630
  46.5328340   6.0780650  89.4980100  46.8744040   6.8222880  89.0023420
  45.7041050   6.3911770  89.8604930  53.8369270   8.0711060  91.0153920
  53.1945430   7.4166680  91.2897640  53.4499930   8.4766150  90.2394590
  49.4155750   5.3996490  94.8625610  49.7679570   4.8024620  94.2026980
  48.5318080   5.0740720  95.0333860  45.5019030   6.1594180  92.2696020
  46.1890160   6.7063390  92.6503610  44.7151450   6.7034910  92.3045630
  37.6411430   1.7767000  87.7613100  38.5106280   2.0591800  88.0449020
  37.1501750   2.5902870  87.6461910  44.8046240   3.1640210  91.8821380
  45.2609020   3.9745460  92.1081570  44.4534450   2.8463350  92.7139870
  52.2266650   6.9627520  87.5530270  52.0004230   6.2457960  88.1454910
  51.8362850   6.7139960  86.7152020  38.0082680  10.9894380  88.3274730
  38.3680320  11.5883720  87.6732000  37.8675020  11.5354270  89.1009760
  51.8082900   4.8799460  89.2144430  51.5204600   5.3412150  90.0022310
  52.6035070   4.4197230  89.4828650  44.0251300   8.3725580  89.1448400
  44.0161400   9.1055270  88.5292910  43.1049660   8.1257160  89.2375360
  39.6257940   3.5940470  89.8895160  39.0185890   4.3339370  89.8990460
  40.1007290   3.6839830  89.0633360  47.0110900   8.4353820  87.8073590
  47.1122880   8.2317810  86.8775570  46.1112640   8.1812100  88.0121370
  45.6529010  10.9540140  92.5021260  45.9070510  10.9161530  91.5800630
  44.7041490  10.8273470  92.4949510  41.6363230   3.5551620  87.6383730
  42.4026500   3.4432980  88.2009160  41.7137920   2.8589590  86.9860500
  41.1324700  11.1372080  95.4251160  41.8687180  10.5887540  95.6959730
  41.5165620  12.0028090  95.2857150  38.0170180   7.2045650  91.2992670
  37.0909960   7.4466790  91.2898080  38.4826610   8.0319910  91.1777420
  44.2427010  10.3102390  87.2476730  45.0355620  10.5991220  86.7958520
  43.7231360   9.8794560  86.5689210  53.2957180   9.5372520  88.6713470
  53.0098690   9.1237660  87.8567650  53.0976730  10.4660230  88.5513990
  44.7604410   5.5305800  87.1119080  44.6555050   4.9158150  87.8380460
  44.5928630   5.0071690  86.3282090  48.0007140   4.5925830  87.7161070
  47.4517240   5.0395130  88.3603810  48.6226400   4.0875080  88.2398740
  43.6682260   3.5516750  89.6126370  44.0898680   3.3856620  90.4557760
  43.7933100   2.7416980  89.1181510  46.1809900   2.5754360  86.8603470
  46.7015560   1.8603380  86.4944620  46.8278300   3.2140230  87.1603980
  46.7457930  10.6565970  89.1505210  47.6408720  10.9950940  89.1723970
  46.7775560   9.9345380  88.5229490  40.3854090   6.0293020  87.3792210
  40.8228960   6.5722690  88.0349790  40.8701820   5.2039970  87.3888550
  37.5999890   8.8182050  94.8312470  37.9302900   7.9503110  94.5991110
  38.0290890   9.0240570  95.6617430  42.1961810   7.1491060  92.4914440
  41.8957350   7.0256030  93.3918350  42.0899300   6.2899650  92.0830170
  54.9653730   6.9287460  87.1941120  54.1346690   6.9964110  87.6648350
  55.1425560   7.8191580  86.8907980  54.4210190   3.6734940  89.6975320
  55.1829100   4.2431590  89.8035010  54.4364560   3.1062140  90.4683630
  37.9214530   2.1972870  93.9282980  37.2663370   1.9284510  93.2842680
  38.7592480   2.0877350  93.4784960  55.4270160   4.5285040  94.5417250
  55.7978990   3.7452360  94.1353220  56.0672090   5.2174140  94.3634550
  54.4729360   3.9669310  86.8547840  54.7478200   4.8748190  86.7267060
  54.2840100   3.9031840  87.7909830  52.4679970  10.6640220  93.4815840
  53.0639040  10.3424790  92.8050260  52.7258120  10.1912040  94.2729110
  38.1272800  10.7253150  92.9109050  37.9594840  10.0923830  93.6090940
  37.2607310  10.9312550  92.5603240  39.7335500   9.4186380  90.3559190
  39.2083120   9.7994410  89.6521150  39.6580080  10.0437150  91.0768900
  54.4900820  10.9773920  91.6773130  54.6653010  10.2911660  91.0334050
  53.7922390  11.5020970  91.2849800  42.3328470  11.3668760  89.2308440
  43.0647290  11.0828040  88.6832330  42.5922140  11.1282040  90.1207820
  41.4943260   7.4833490  89.2354770  40.8652140   7.9518590  89.7840600
  41.6091090   6.6382710  89.6700960  47.0811020   3.3118170  77.2665240
  46.3053120   2.8318610  77.5563810  47.7323950   2.6323820  77.0921400
  41.0976850   3.6237980  78.1441000  40.2661730   3.3686690  78.5437510
  41.7057830   3.6948750  78.8798920  51.1018450   7.7178360  76.0464370
  50.6399980   6.9465600  76.3751540  51.9144000   7.7444430  76.5516820
  41.0778110   7.6578070  78.3399020  41.3806150   6.7675810  78.1609240
  41.8221700   8.2148290  78.1121270  47.3281760  10.0036370  75.6668360
  46.7093200  10.4593870  75.0962800  48.1833540  10.1587830  75.2658060
  46.5220010   5.9875360  77.2735400  46.4528290   5.0465300  77.1124530
  47.2839870   6.0776770  77.8457970  48.1945110   4.8875610  73.0600270
  47.5762380   5.3525060  72.4962990  48.7068360   5.5803090  73.4769780
  43.0576870   4.4151480  79.7383870  42.7246250   5.0420400  80.3804940
  43.2343550   4.9413360  78.9585540  42.2695970   6.3832280  81.5533050
  42.8869970   7.0583360  81.2717500  41.4089090   6.7920260  81.4620550
  37.5628310   5.5732140  70.4339900  37.1856290   6.0619240  69.7024800
  37.8201380   6.2457420  71.0646430  53.1873560   7.8471690  79.4687690
  52.5037080   8.5170800  79.4604360  53.7267850   8.0452340  78.7032550
  50.7232300   9.6915820  78.1832870  50.7359460   9.2878110  77.3155130
  50.1707520  10.4663110  78.0794300  52.0177720   6.4132040  73.2723040
  51.9074050   5.4706370  73.3972460  52.0145970   6.7747680  74.1585800
  50.1217740   4.5945660  79.5115480  50.5386530   4.3805770  78.6768940
  50.8457560   4.8518450  80.0824100  47.5598000   2.0397360  72.6285530
  46.6327280   1.9734740  72.8574000  47.7122820   2.9777490  72.5140770
  54.0679840   2.9932880  79.6031720  53.2398470   3.0625970  79.1281850
  54.6630320   3.5787190  79.1347550  51.5895290   3.6017660  73.1320780
  50.9707710   3.2637210  72.4847080  51.5719740   2.9577420  73.8399970
  43.1654640   2.5662100  75.4105260  42.7611640   1.8539350  74.9151160
  43.2517760   2.2215340  76.2993300  43.6336340   6.2529660  77.5744470
  43.3364630   5.6475130  76.8952250  44.5836160   6.2906970  77.4633830
  51.7221950   9.8261530  81.2367570  51.2452510  10.6333720  81.0440180
  51.0383740   9.1739860  81.3893780  42.7254770   5.9911350  84.2252270
  41.8283300   6.2151320  84.4725670  42.7507640   6.1146290  83.2763670
  49.7659990   2.8404470  70.1393530  50.2053270   2.0026900  69.9931350
  50.4788410   3.4733870  70.2257670  41.5525990   2.8624670  82.8009640
  41.4133760   3.7347470  83.1697040  40.6707350   2.5197480  82.6557580
  47.8755370   7.7800540  74.1074770  48.3151280   8.5224870  73.6930160
  47.8142260   8.0227110  75.0313730  43.3506340   8.8046370  85.0094790
  43.3221770   9.2089320  84.1423220  43.1871310   7.8756730  84.8466390
  55.3021160   9.5873470  86.3058960  55.7780880  10.0656360  86.9848040
  55.9228320   9.5190960  85.5804460  37.5044640   4.6322220  78.7180550
  37.5825060   4.7670990  77.7736270  38.1186320   3.9238110  78.9108670
  38.7492270   6.3322410  75.1286730  38.3420350   6.4737000  74.2740330
  39.6405280   6.0482570  74.9257940  54.7054410   6.7786320  83.4658970
  54.8317470   6.5398200  82.5476150  54.7475790   5.9470860  83.9381050
  48.5671150  10.4814320  82.0353780  49.0815820  10.3922330  82.8376210
  47.7240230  10.8274020  82.3281690  50.5425550  10.7669660  71.4637780
  50.3826690  10.4772600  72.3619610  50.3772260   9.9909790  70.9283010
  43.0213930  10.5468190  73.2409400  42.8456410   9.6303730  73.0277200
  42.1669670  10.9055480  73.4807200  50.2451680   8.2757220  70.0235780
  49.5516840   8.2734510  69.3638060  50.9874540   7.8516540  69.5929950
  49.8101610   9.9019930  74.0984270  50.2658560   9.1209310  74.4122890
  50.1494130  10.6126750  74.6425450  37.5604160   5.6736390  81.2575010
  37.7235200   5.2041750  80.4394380  38.0256610   5.1659950  81.9223850
  39.1343140   5.0487820  83.4170820  38.7497930   4.4081490  84.0153780
  39.4455330   5.7523940  83.9865550  45.2840280   1.8964360  78.8979440
  45.6510410   1.4222930  79.6440780  45.0945340   2.7705930  79.2387780
  41.6021440   5.1433990  71.8130500  40.8283700   4.6031610  71.6529220
  42.3316070   4.6240600  71.4748260  52.3609420   4.1399350  77.6056890
  53.0808540   4.6354640  77.2153000  52.1591240   3.4617240  76.9610760
  47.7428220   4.2108410  83.4925890  47.6765530   3.2904080  83.2383480
  47.1133360   4.3083850  84.2070530  41.6458840   4.8114370  75.4509310
  42.1637510   4.0082630  75.3966200  41.1942860   4.7493510  76.2926140
  46.5328340   6.0780650  70.7236610  46.8744040   6.8222880  70.2279930
  45.7041050   6.3911770  71.0861440  42.3316500   2.2359980  85.2474560
  42.0316640   2.3817160  84.3502380  43.1027740   1.6765270  85.1547950
  47.6744950   7.0328980  83.2429690  47.6889490   6.1009940  83.0248600
  46.9670050   7.1188740  83.8819460  53.8856160   3.6736320  82.5898270
  53.1604350   4.2665100  82.3927660  54.4131620   3.6659860  81.7911640
  53.8369270   8.0711060  72.2410430  53.1945430   7.4166680  72.5154150
  53.4499930   8.4766150  71.4651100  49.4155750   5.3996490  76.0882120
  49.7679570   4.8024620  75.4283490  48.5318080   5.0740720  76.2590370
  45.5019030   6.1594180  73.4952530  46.1890160   6.7063390  73.8760120
  44.7151450   6.7034910  73.5302140  37.6411430   1.7767000  68.9869610
  38.5106280   2.0591800  69.2705530  37.1501750   2.5902870  68.8718420
  44.8046240   3.1640210  73.1077890  45.2609020   3.9745460  73.3338080
  44.4534450   2.8463350  73.9396380  47.1078850   8.6746550  80.3370190
  47.7521070   8.8805930  81.0143610  47.4708290   7.9134950  79.8841040
  48.3810930   6.6778900  79.0547640  49.0233160   5.9772060  79.1679810
  48.9060280   7.4577340  78.8744530  52.2266650   6.9627520  68.7786780
  52.0004230   6.2457960  69.3711420  51.8362850   6.7139960  67.9408530
  50.1548550   7.4773800  82.2583700  50.4904790   8.0640490  82.9361620
  49.2348890   7.3466510  82.4881490  38.0082680  10.9894380  69.5531240
  38.3680320  11.5883720  68.8988510  37.8675020  11.5354270  70.3266270
  51.8082900   4.8799460  70.4400940  51.5204600   5.3412150  71.2278820
  52.6035070   4.4197230  70.7085160  37.9924540   9.2549240  84.0273640
  38.1015660   8.3143980  83.8869030  37.3405100   9.5203990  83.3787370
  45.9837130   7.5265130  85.4271760  45.6634000   6.8074370  85.9717450
  45.3095490   8.2020200  85.5007820  44.0251300   8.3725580  70.3704910
  44.0161400   9.1055270  69.7549420  43.1049660   8.1257160  70.4631870
  39.6257940   3.5940470  71.1151670  39.0185890   4.3339370  71.1246970
  40.1007290   3.6839830  70.2889870  47.0110900   8.4353820  69.0330100
  47.1122880   8.2317810  68.1032080  46.1112640   8.1812100  69.2377880
  45.6529010  10.9540140  73.7277770  45.9070510  10.9161530  72.8057140
  44.7041490  10.8273470  73.7206020  41.6363230   3.5551620  68.8640240
  42.4026500   3.4432980  69.4265670  41.7137920   2.8589590  68.2117010
  53.6607170   9.0440870  76.9790540  53.7854590   9.8672040  77.4514350
  54.5272730   8.8331600  76.6314690  41.1324700  11.1372080  76.6507670
  41.8687180  10.5887540  76.9216240  41.5165620  12.0028090  76.5113660
  38.0170180   7.2045650  72.5249180  37.0909960   7.4466790  72.5154590
  38.4826610   8.0319910  72.4033930  40.1382980  10.3218150  85.8393250
  40.9395710  10.6430200  86.2528650  39.6234800   9.9613730  86.5613160
  44.2427010  10.3102390  68.4733240  45.0355620  10.5991220  68.0215030
  43.7231360   9.8794560  67.7945720  48.9747610   6.4298020  85.7868660
  48.3685770   6.4529620  85.0464410  48.6701720   5.6981060  86.3235910
  50.4047980  10.1578310  84.3978070  51.3569730  10.0736330  84.3478310
  50.2576200  10.8220020  85.0711860  53.2957180   9.5372520  69.8969980
  53.0098690   9.1237660  69.0824160  53.0976730  10.4660230  69.7770500
  37.8580790   2.8091610  84.7829300  38.3619810   2.2298890  85.3545530
  37.1188210   3.0931840  85.3205670  44.7604410   5.5305800  68.3375590
  44.6555050   4.9158150  69.0636970  44.5928630   5.0071690  67.5538600
  44.9118730   4.2162600  84.3164820  44.1464400   4.7847600  84.2319490
  45.0934690   3.9238810  83.4233050  48.0007140   4.5925830  68.9417580
  47.4517240   5.0395130  69.5860320  48.6226400   4.0875080  69.4655250
  52.0542080   5.9467930  84.8739840  52.7951550   6.2843690  84.3707300
  51.2914760   6.1159990  84.3209610  43.6682260   3.5516750  70.8382880
  44.0898680   3.3856620  71.6814270  43.7933100   2.7416980  70.3438020
  46.1809900   2.5754360  68.0859980  46.7015560   1.8603380  67.7201130
  46.8278300   3.2140230  68.3860490  50.7287740   3.9982760  83.4095050
  51.1428760   4.1527840  84.2585470  49.7938740   4.1237980  83.5720830
  45.4902970   3.9503240  81.3790980  45.9091080   4.7935970  81.2067220
  44.5711600   4.0875280  81.1497760  50.1654770   2.2356610  81.3391330
  49.6389990   2.7599230  80.7356470  50.5086110   2.8684000  81.9701060
  43.3410390  10.2556250  82.4948710  42.8031480  10.9802310  82.1757410
  43.5944350   9.7786590  81.7046050  46.1972600  11.4907460  82.7535360
  46.1231300  12.3942600  83.0607730  45.2951440  11.1719360  82.7257430
  46.7457930  10.6565970  70.3761720  47.6408720  10.9950940  70.3980480
  46.7775560   9.9345380  69.7486000  40.3854090   6.0293020  68.6048720
  40.8228960   6.5722690  69.2606300  40.8701820   5.2039970  68.6145060
  37.5999890   8.8182050  76.0568980  37.9302900   7.9503110  75.8247620
  38.0290890   9.0240570  76.8873940  42.1961810   7.1491060  73.7170950
  41.8957350   7.0256030  74.6174860  42.0899300   6.2899650  73.3086680
  38.0890100   9.6852640  78.7950610  37.6521090   9.8653440  79.6274760
  38.6567780  10.4427260  78.6532330  53.7252280   9.1869640  83.0827920
  53.1254270   9.2462200  82.3391840  53.8546180   8.2474620  83.2124770
  54.9653730   6.9287460  68.4197630  54.1346690   6.9964110  68.8904860
  55.1425560   7.8191580  68.1164490  54.4210190   3.6734940  70.9231830
  55.1829100   4.2431590  71.0291520  54.4364560   3.1062140  71.6940140
  37.9214530   2.1972870  75.1539490  37.2663370   1.9284510  74.5099190
  38.7592480   2.0877350  74.7041470  55.4270160   4.5285040  75.7673760
  55.7978990   3.7452360  75.3609730  56.0672090   5.2174140  75.5891060
  52.4103920   5.9121620  81.1804080  51.5963760   6.3418780  81.4429870
  52.8178120   6.5240030  80.5673130  54.4729360   3.9669310  68.0804350
  54.7478200   4.8748190  67.9523570  54.2840100   3.9031840  69.0166340
  38.9590460   2.5825440  79.6942830  39.3263500   2.4952840  80.5738850
  38.3901280   1.8191990  79.5949690  52.4679970  10.6640220  74.7072350
  53.0639040  10.3424790  74.0306770  52.7258120  10.1912040  75.4985620
  40.3742540   7.0958130  84.8562980  40.3312170   6.7251040  85.7377440
  40.5053550   8.0335700  84.9964800  44.0748570   8.6517720  80.4572700
  43.8339930   8.9192280  79.5703220  45.0151210   8.8223450  80.5123560
  55.3352730  10.6712100  81.2583340  54.8411010  11.0680970  80.5410470
  54.7266020  10.0461310  81.6520620  40.2130570  10.0420380  81.9760760
  39.6190890   9.9105080  82.7150800  40.2054410   9.2058520  81.5102860
  53.0192180  11.3135520  78.5370080  52.5595150  12.0651330  78.1628100
  52.3904640  10.5941990  78.4784880  39.8442800   7.4078760  80.9268800
  39.1176860   6.7884050  80.8594750  39.9051950   7.8019370  80.0566880
  43.4487900   9.6223760  77.7118210  43.9652920   9.0111120  77.1866470
  44.0985280  10.1252540  78.2029220  46.1883400  10.5132250  78.5387190
  46.4761210  10.2586550  77.6620200  46.7006620   9.9609610  79.1292760
  38.1272800  10.7253150  74.1365560  37.9594840  10.0923830  74.8347450
  37.2607310  10.9312550  73.7859750  39.7335500   9.4186380  71.5815700
  39.2083120   9.7994410  70.8777660  39.6580080  10.0437150  72.3025410
  46.2555760  11.4348350  85.9055390  47.1823070  11.1992620  85.9491350
  46.2406190  12.2620350  85.4241420  54.4900820  10.9773920  72.9029640
  54.6653010  10.2911660  72.2590560  53.7922390  11.5020970  72.5106310
  42.3328470  11.3668760  70.4564950  43.0647290  11.0828040  69.9088840
  42.5922140  11.1282040  71.3464330  41.4943260   7.4833490  70.4611280
  40.8652140   7.9518590  71.0097110  41.6091090   6.6382710  70.8957470
  52.8233320  10.6618210  85.7296430  53.6158640  10.1667440  85.5222390
  53.1166470  11.3408350  86.3372040  47.0811020   3.3118170  58.4921750
  46.3053120   2.8318610  58.7820320  47.7323950   2.6323820  58.3177910
  41.0976850   3.6237980  59.3697510  40.2661730   3.3686690  59.7694020
  41.7057830   3.6948750  60.1055430  51.1018450   7.7178360  57.2720880
  50.6399980   6.9465600  57.6008050  51.9144000   7.7444430  57.7773330
  41.0778110   7.6578070  59.5655530  41.3806150   6.7675810  59.3865750
  41.8221700   8.2148290  59.3377780  47.3281760  10.0036370  56.8924870
  46.7093200  10.4593870  56.3219310  48.1833540  10.1587830  56.4914570
  46.5220010   5.9875360  58.4991910  46.4528290   5.0465300  58.3381040
  47.2839870   6.0776770  59.0714480  48.1945110   4.8875610  54.2856780
  47.5762380   5.3525060  53.7219500  48.7068360   5.5803090  54.7026290
  43.0576870   4.4151480  60.9640380  42.7246250   5.0420400  61.6061450
  43.2343550   4.9413360  60.1842050  42.2695970   6.3832280  62.7789560
  42.8869970   7.0583360  62.4974010  41.4089090   6.7920260  62.6877060
  37.5628310   5.5732140  51.6596410  37.1856290   6.0619240  50.9281310
  37.8201380   6.2457420  52.2902940  53.1873560   7.8471690  60.6944200
  52.5037080   8.5170800  60.6860870  53.7267850   8.0452340  59.9289060
  50.7232300   9.6915820  59.4089380  50.7359460   9.2878110  58.5411640
  50.1707520  10.4663110  59.3050810  52.0177720   6.4132040  54.4979550
  51.9074050   5.4706370  54.6228970  52.0145970   6.7747680  55.3842310
  50.1217740   4.5945660  60.7371990  50.5386530   4.3805770  59.9025450
  50.8457560   4.8518450  61.3080610  47.5598000   2.0397360  53.8542040
  46.6327280   1.9734740  54.0830510  47.7122820   2.9777490  53.7397280
  54.0679840   2.9932880  60.8288230  53.2398470   3.0625970  60.3538360
  54.6630320   3.5787190  60.3604060  51.5895290   3.6017660  54.3577290
  50.9707710   3.2637210  53.7103590  51.5719740   2.9577420  55.0656480
  43.1654640   2.5662100  56.6361770  42.7611640   1.8539350  56.1407670
  43.2517760   2.2215340  57.5249810  43.6336340   6.2529660  58.8000980
  43.3364630   5.6475130  58.1208760  44.5836160   6.2906970  58.6890340
  51.7221950   9.8261530  62.4624080  51.2452510  10.6333720  62.2696690
  51.0383740   9.1739860  62.6150290  42.7254770   5.9911350  65.4508780
  41.8283300   6.2151320  65.6982180  42.7507640   6.1146290  64.5020180
  49.7659990   2.8404470  51.3650040  50.2053270   2.0026900  51.2187860
  50.4788410   3.4733870  51.4514180  41.5525990   2.8624670  64.0266150
  41.4133760   3.7347470  64.3953550  40.6707350   2.5197480  63.8814090
  47.8755370   7.7800540  55.3331280  48.3151280   8.5224870  54.9186670
  47.8142260   8.0227110  56.2570240  43.3506340   8.8046370  66.2351300
  43.3221770   9.2089320  65.3679730  43.1871310   7.8756730  66.0722900
  55.3021160   9.5873470  67.5315470  55.7780880  10.0656360  68.2104550
  55.9228320   9.5190960  66.8060970  37.5044640   4.6322220  59.9437060
  37.5825060   4.7670990  58.9992780  38.1186320   3.9238110  60.1365180
  38.7492270   6.3322410  56.3543240  38.3420350   6.4737000  55.4996840
  39.6405280   6.0482570  56.1514450  54.7054410   6.7786320  64.6915480
  54.8317470   6.5398200  63.7732660  54.7475790   5.9470860  65.1637560
  48.5671150  10.4814320  63.2610290  49.0815820  10.3922330  64.0632720
  47.7240230  10.8274020  63.5538200  50.5425550  10.7669660  52.6894290
  50.3826690  10.4772600  53.5876120  50.3772260   9.9909790  52.1539520
  43.0213930  10.5468190  54.4665910  42.8456410   9.6303730  54.2533710
  42.1669670  10.9055480  54.7063710  50.2451680   8.2757220  51.2492290
  49.5516840   8.2734510  50.5894570  50.9874540   7.8516540  50.8186460
  49.8101610   9.9019930  55.3240780  50.2658560   9.1209310  55.6379400
  50.1494130  10.6126750  55.8681960  37.5604160   5.6736390  62.4831520
  37.7235200   5.2041750  61.6650890  38.0256610   5.1659950  63.1480360
  39.1343140   5.0487820  64.6427330  38.7497930   4.4081490  65.2410290
  39.4455330   5.7523940  65.2122060  45.2840280   1.8964360  60.1235950
  45.6510410   1.4222930  60.8697290  45.0945340   2.7705930  60.4644290
  41.6021440   5.1433990  53.0387010  40.8283700   4.6031610  52.8785730
  42.3316070   4.6240600  52.7004770  52.3609420   4.1399350  58.8313400
  53.0808540   4.6354640  58.4409510  52.1591240   3.4617240  58.1867270
  47.7428220   4.2108410  64.7182400  47.6765530   3.2904080  64.4639990
  47.1133360   4.3083850  65.4327040  41.6458840   4.8114370  56.6765820
  42.1637510   4.0082630  56.6222710  41.1942860   4.7493510  57.5182650
  46.5328340   6.0780650  51.9493120  46.8744040   6.8222880  51.4536440
  45.7041050   6.3911770  52.3117950  42.3316500   2.2359980  66.4731070
  42.0316640   2.3817160  65.5758890  43.1027740   1.6765270  66.3804460
  47.6744950   7.0328980  64.4686200  47.6889490   6.1009940  64.2505110
  46.9670050   7.1188740  65.1075970  53.8856160   3.6736320  63.8154780
  53.1604350   4.2665100  63.6184170  54.4131620   3.6659860  63.0168150
  53.8369270   8.0711060  53.4666940  53.1945430   7.4166680  53.7410660
  53.4499930   8.4766150  52.6907610  49.4155750   5.3996490  57.3138630
  49.7679570   4.8024620  56.6540000  48.5318080   5.0740720  57.4846880
  45.5019030   6.1594180  54.7209040  46.1890160   6.7063390  55.1016630
  44.7151450   6.7034910  54.7558650  37.6411430   1.7767000  50.2126120
  38.5106280   2.0591800  50.4962040  37.1501750   2.5902870  50.0974930
  44.8046240   3.1640210  54.3334400  45.2609020   3.9745460  54.5594590
  44.4534450   2.8463350  55.1652890  47.1078850   8.6746550  61.5626700
  47.7521070   8.8805930  62.2400120  47.4708290   7.9134950  61.1097550
  48.3810930   6.6778900  60.2804150  49.0233160   5.9772060  60.3936320
  48.9060280   7.4577340  60.1001040  52.2266650   6.9627520  50.0043290
  52.0004230   6.2457960  50.5967930  51.8362850   6.7139960  49.1665040
  50.1548550   7.4773800  63.4840210  50.4904790   8.0640490  64.1618130
  49.2348890   7.3466510  63.7138000  38.0082680  10.9894380  50.7787750
  38.3680320  11.5883720  50.1245020  37.8675020  11.5354270  51.5522780
  51.8082900   4.8799460  51.6657450  51.5204600   5.3412150  52.4535330
  52.6035070   4.4197230  51.9341670  37.9924540   9.2549240  65.2530150
  38.1015660   8.3143980  65.1125540  37.3405100   9.5203990  64.6043880
  45.9837130   7.5265130  66.6528270  45.6634000   6.8074370  67.1973960
  45.3095490   8.2020200  66.7264330  44.0251300   8.3725580  51.5961420
  44.0161400   9.1055270  50.9805930  43.1049660   8.1257160  51.6888380
  39.6257940   3.5940470  52.3408180  39.0185890   4.3339370  52.3503480
  40.1007290   3.6839830  51.5146380  47.0110900   8.4353820  50.2586610
  47.1122880   8.2317810  49.3288590  46.1112640   8.1812100  50.4634390
  45.6529010  10.9540140  54.9534280  45.9070510  10.9161530  54.0313650
  44.7041490  10.8273470  54.9462530  41.6363230   3.5551620  50.0896750
  42.4026500   3.4432980  50.6522180  41.7137920   2.8589590  49.4373520
  53.6607170   9.0440870  58.2047050  53.7854590   9.8672040  58.6770860
  54.5272730   8.8331600  57.8571200  41.1324700  11.1372080  57.8764180
  41.8687180  10.5887540  58.1472750  41.5165620  12.0028090  57.7370170
  38.0170180   7.2045650  53.7505690  37.0909960   7.4466790  53.7411100
  38.4826610   8.0319910  53.6290440  40.1382980  10.3218150  67.0649760
  40.9395710  10.6430200  67.4785160  39.6234800   9.9613730  67.7869670
  44.2427010  10.3102390  49.6989750  45.0355620  10.5991220  49.2471540
  43.7231360   9.8794560  49.0202230  48.9747610   6.4298020  67.0125170
  48.3685770   6.4529620  66.2720920  48.6701720   5.6981060  67.5492420
  50.4047980  10.1578310  65.6234580  51.3569730  10.0736330  65.5734820
  50.2576200  10.8220020  66.2968370  53.2957180   9.5372520  51.1226490
  53.0098690   9.1237660  50.3080670  53.0976730  10.4660230  51.0027010
  37.8580790   2.8091610  66.0085810  38.3619810   2.2298890  66.5802040
  37.1188210   3.0931840  66.5462180  44.7604410   5.5305800  49.5632100
  44.6555050   4.9158150  50.2893480  44.5928630   5.0071690  48.7795110
  44.9118730   4.2162600  65.5421330  44.1464400   4.7847600  65.4576000
  45.0934690   3.9238810  64.6489560  48.0007140   4.5925830  50.1674090
  47.4517240   5.0395130  50.8116830  48.6226400   4.0875080  50.6911760
  52.0542080   5.9467930  66.0996350  52.7951550   6.2843690  65.5963810
  51.2914760   6.1159990  65.5466120  43.6682260   3.5516750  52.0639390
  44.0898680   3.3856620  52.9070780  43.7933100   2.7416980  51.5694530
  46.1809900   2.5754360  49.3116490  46.7015560   1.8603380  48.9457640
  46.8278300   3.2140230  49.6117000  50.7287740   3.9982760  64.6351560
  51.1428760   4.1527840  65.4841980  49.7938740   4.1237980  64.7977340
  45.4902970   3.9503240  62.6047490  45.9091080   4.7935970  62.4323730
  44.5711600   4.0875280  62.3754270  50.1654770   2.2356610  62.5647840
  49.6389990   2.7599230  61.9612980  50.5086110   2.8684000  63.1957570
  43.3410390  10.2556250  63.7205220  42.8031480  10.9802310  63.4013920
  43.5944350   9.7786590  62.9302560  46.1972600  11.4907460  63.9791870
  46.1231300  12.3942600  64.2864240  45.2951440  11.1719360  63.9513940
  46.7457930  10.6565970  51.6018230  47.6408720  10.9950940  51.6236990
  46.7775560   9.9345380  50.9742510  40.3854090   6.0293020  49.8305230
  40.8228960   6.5722690  50.4862810  40.8701820   5.2039970  49.8401570
  37.5999890   8.8182050  57.2825490  37.9302900   7.9503110  57.0504130
  38.0290890   9.0240570  58.1130450  42.1961810   7.1491060  54.9427460
  41.8957350   7.0256030  55.8431370  42.0899300   6.2899650  54.5343190
  38.0890100   9.6852640  60.0207120  37.6521090   9.8653440  60.8531270
  38.6567780  10.4427260  59.8788840  53.7252280   9.1869640  64.3084430
  53.1254270   9.2462200  63.5648350  53.8546180   8.2474620  64.4381280
  54.9653730   6.9287460  49.6454140  54.1346690   6.9964110  50.1161370
  55.1425560   7.8191580  49.3421000  54.4210190   3.6734940  52.1488340
  55.1829100   4.2431590  52.2548030  54.4364560   3.1062140  52.9196650
  37.9214530   2.1972870  56.3796000  37.2663370   1.9284510  55.7355700
  38.7592480   2.0877350  55.9297980  55.4270160   4.5285040  56.9930270
  55.7978990   3.7452360  56.5866240  56.0672090   5.2174140  56.8147570
  52.4103920   5.9121620  62.4060590  51.5963760   6.3418780  62.6686380
  52.8178120   6.5240030  61.7929640  54.4729360   3.9669310  49.3060860
  54.7478200   4.8748190  49.1780080  54.2840100   3.9031840  50.2422850
  38.9590460   2.5825440  60.9199340  39.3263500   2.4952840  61.7995360
  38.3901280   1.8191990  60.8206200  52.4679970  10.6640220  55.9328860
  53.0639040  10.3424790  55.2563280  52.7258120  10.1912040  56.7242130
  40.3742540   7.0958130  66.0819490  40.3312170   6.7251040  66.9633950
  40.5053550   8.0335700  66.2221310  44.0748570   8.6517720  61.6829210
  43.8339930   8.9192280  60.7959730  45.0151210   8.8223450  61.7380070
  55.3352730  10.6712100  62.4839850  54.8411010  11.0680970  61.7666980
  54.7266020  10.0461310  62.8777130  40.2130570  10.0420380  63.2017270
  39.6190890   9.9105080  63.9407310  40.2054410   9.2058520  62.7359370
  53.0192180  11.3135520  59.7626590  52.5595150  12.0651330  59.3884610
  52.3904640  10.5941990  59.7041390  39.8442800   7.4078760  62.1525310
  39.1176860   6.7884050  62.0851260  39.9051950   7.8019370  61.2823390
  43.4487900   9.6223760  58.9374720  43.9652920   9.0111120  58.4122980
  44.0985280  10.1252540  59.4285730  46.1883400  10.5132250  59.7643700
  46.4761210  10.2586550  58.8876710  46.7006620   9.9609610  60.3549270
  38.1272800  10.7253150  55.3622070  37.9594840  10.0923830  56.0603960
  37.2607310  10.9312550  55.0116260  39.7335500   9.4186380  52.8072210
  39.2083120   9.7994410  52.1034170  39.6580080  10.0437150  53.5281920
  46.2555760  11.4348350  67.1311900  47.1823070  11.1992620  67.1747860
  46.2406190  12.2620350  66.6497930  54.4900820  10.9773920  54.1286150
  54.6653010  10.2911660  53.4847070  53.7922390  11.5020970  53.7362820
  42.3328470  11.3668760  51.6821460  43.0647290  11.0828040  51.1345350
  42.5922140  11.1282040  52.5720840  41.4943260   7.4833490  51.6867790
  40.8652140   7.9518590  52.2353620  41.6091090   6.6382710  52.1213980
  52.8233320  10.6618210  66.9552940  53.6158640  10.1667440  66.7478900
  53.1166470  11.3408350  67.5628550  47.0811020   3.3118170  39.7178260
  46.3053120   2.8318610  40.0076830  47.7323950   2.6323820  39.5434420
  41.0976850   3.6237980  40.5954020  40.2661730   3.3686690  40.9950530
  41.7057830   3.6948750  41.3311940  51.1018450   7.7178360  38.4977390
  50.6399980   6.9465600  38.8264560  51.9144000   7.7444430  39.0029840
  41.0778110   7.6578070  40.7912040  41.3806150   6.7675810  40.6122260
  41.8221700   8.2148290  40.5634290  47.3281760  10.0036370  38.1181380
  46.7093200  10.4593870  37.5475820  48.1833540  10.1587830  37.7171080
  46.5220010   5.9875360  39.7248420  46.4528290   5.0465300  39.5637550
  47.2839870   6.0776770  40.2970990  48.1945110   4.8875610  35.5113290
  47.5762380   5.3525060  34.9476010  48.7068360   5.5803090  35.9282800
  43.0576870   4.4151480  42.1896890  42.7246250   5.0420400  42.8317960
  43.2343550   4.9413360  41.4098560  42.2695970   6.3832280  44.0046070
  42.8869970   7.0583360  43.7230520  41.4089090   6.7920260  43.9133570
  37.5628310   5.5732140  32.8852920  37.1856290   6.0619240  32.1537820
  37.8201380   6.2457420  33.5159450  53.1873560   7.8471690  41.9200710
  52.5037080   8.5170800  41.9117380  53.7267850   8.0452340  41.1545570
  50.7232300   9.6915820  40.6345890  50.7359460   9.2878110  39.7668150
  50.1707520  10.4663110  40.5307320  52.0177720   6.4132040  35.7236060
  51.9074050   5.4706370  35.8485480  52.0145970   6.7747680  36.6098820
  50.1217740   4.5945660  41.9628500  50.5386530   4.3805770  41.1281960
  50.8457560   4.8518450  42.5337120  47.5598000   2.0397360  35.0798550
  46.6327280   1.9734740  35.3087020  47.7122820   2.9777490  34.9653790
  54.0679840   2.9932880  42.0544740  53.2398470   3.0625970  41.5794870
  54.6630320   3.5787190  41.5860570  51.5895290   3.6017660  35.5833800
  50.9707710   3.2637210  34.9360100  51.5719740   2.9577420  36.2912990
  43.1654640   2.5662100  37.8618280  42.7611640   1.8539350  37.3664180
  43.2517760   2.2215340  38.7506320  43.6336340   6.2529660  40.0257490
  43.3364630   5.6475130  39.3465270  44.5836160   6.2906970  39.9146850
  51.7221950   9.8261530  43.6880590  51.2452510  10.6333720  43.4953200
  51.0383740   9.1739860  43.8406800  42.7254770   5.9911350  46.6765290
  41.8283300   6.2151320  46.9238690  42.7507640   6.1146290  45.7276690
  49.7659990   2.8404470  32.5906550  50.2053270   2.0026900  32.4444370
  50.4788410   3.4733870  32.6770690  41.5525990   2.8624670  45.2522660
  41.4133760   3.7347470  45.6210060  40.6707350   2.5197480  45.1070600
  47.8755370   7.7800540  36.5587790  48.3151280   8.5224870  36.1443180
  47.8142260   8.0227110  37.4826750  43.3506340   8.8046370  47.4607810
  43.3221770   9.2089320  46.5936240  43.1871310   7.8756730  47.2979410
  55.3021160   9.5873470  48.7571980  55.7780880  10.0656360  49.4361060
  55.9228320   9.5190960  48.0317480  37.5044640   4.6322220  41.1693570
  37.5825060   4.7670990  40.2249290  38.1186320   3.9238110  41.3621690
  38.7492270   6.3322410  37.5799750  38.3420350   6.4737000  36.7253350
  39.6405280   6.0482570  37.3770960  54.7054410   6.7786320  45.9171990
  54.8317470   6.5398200  44.9989170  54.7475790   5.9470860  46.3894070
  48.5671150  10.4814320  44.4866800  49.0815820  10.3922330  45.2889230
  47.7240230  10.8274020  44.7794710  50.5425550  10.7669660  33.9150800
  50.3826690  10.4772600  34.8132630  50.3772260   9.9909790  33.3796030
  43.0213930  10.5468190  35.6922420  42.8456410   9.6303730  35.4790220
  42.1669670  10.9055480  35.9320220  50.2451680   8.2757220  32.4748800
  49.5516840   8.2734510  31.8151080  50.9874540   7.8516540  32.0442970
  49.8101610   9.9019930  36.5497290  50.2658560   9.1209310  36.8635910
  50.1494130  10.6126750  37.0938470  37.5604160   5.6736390  43.7088030
  37.7235200   5.2041750  42.8907400  38.0256610   5.1659950  44.3736870
  39.1343140   5.0487820  45.8683840  38.7497930   4.4081490  46.4666800
  39.4455330   5.7523940  46.4378570  45.2840280   1.8964360  41.3492460
  45.6510410   1.4222930  42.0953800  45.0945340   2.7705930  41.6900800
  41.6021440   5.1433990  34.2643520  40.8283700   4.6031610  34.1042240
  42.3316070   4.6240600  33.9261280  52.3609420   4.1399350  40.0569910
  53.0808540   4.6354640  39.6666020  52.1591240   3.4617240  39.4123780
  47.7428220   4.2108410  45.9438910  47.6765530   3.2904080  45.6896500
  47.1133360   4.3083850  46.6583550  41.6458840   4.8114370  37.9022330
  42.1637510   4.0082630  37.8479220  41.1942860   4.7493510  38.7439160
  46.5328340   6.0780650  33.1749630  46.8744040   6.8222880  32.6792950
  45.7041050   6.3911770  33.5374460  42.3316500   2.2359980  47.6987580
  42.0316640   2.3817160  46.8015400  43.1027740   1.6765270  47.6060970
  47.6744950   7.0328980  45.6942710  47.6889490   6.1009940  45.4761620
  46.9670050   7.1188740  46.3332480  53.8856160   3.6736320  45.0411290
  53.1604350   4.2665100  44.8440680  54.4131620   3.6659860  44.2424660
  53.8369270   8.0711060  34.6923450  53.1945430   7.4166680  34.9667170
  53.4499930   8.4766150  33.9164120  49.4155750   5.3996490  38.5395140
  49.7679570   4.8024620  37.8796510  48.5318080   5.0740720  38.7103390
  45.5019030   6.1594180  35.9465550  46.1890160   6.7063390  36.3273140
  44.7151450   6.7034910  35.9815160  37.6411430   1.7767000  31.4382630
  38.5106280   2.0591800  31.7218550  37.1501750   2.5902870  31.3231440
  44.8046240   3.1640210  35.5590910  45.2609020   3.9745460  35.7851100
  44.4534450   2.8463350  36.3909400  47.1078850   8.6746550  42.7883210
  47.7521070   8.8805930  43.4656630  47.4708290   7.9134950  42.3354060
  48.3810930   6.6778900  41.5060660  49.0233160   5.9772060  41.6192830
  48.9060280   7.4577340  41.3257550  52.2266650   6.9627520  31.2299800
  52.0004230   6.2457960  31.8224440  51.8362850   6.7139960  30.3921550
  50.1548550   7.4773800  44.7096720  50.4904790   8.0640490  45.3874640
  49.2348890   7.3466510  44.9394510  38.0082680  10.9894380  32.0044260
  38.3680320  11.5883720  31.3501530  37.8675020  11.5354270  32.7779290
  51.8082900   4.8799460  32.8913960  51.5204600   5.3412150  33.6791840
  52.6035070   4.4197230  33.1598180  37.9924540   9.2549240  46.4786660
  38.1015660   8.3143980  46.3382050  37.3405100   9.5203990  45.8300390
  45.9837130   7.5265130  47.8784780  45.6634000   6.8074370  48.4230470
  45.3095490   8.2020200  47.9520840  44.0251300   8.3725580  32.8217930
  44.0161400   9.1055270  32.2062440  43.1049660   8.1257160  32.9144890
  39.6257940   3.5940470  33.5664690  39.0185890   4.3339370  33.5759990
  40.1007290   3.6839830  32.7402890  47.0110900   8.4353820  31.4843120
  47.1122880   8.2317810  30.5545100  46.1112640   8.1812100  31.6890900
  45.6529010  10.9540140  36.1790790  45.9070510  10.9161530  35.2570160
  44.7041490  10.8273470  36.1719040  41.6363230   3.5551620  31.3153260
  42.4026500   3.4432980  31.8778690  41.7137920   2.8589590  30.6630030
  53.6607170   9.0440870  39.4303560  53.7854590   9.8672040  39.9027370
  54.5272730   8.8331600  39.0827710  41.1324700  11.1372080  39.1020690
  41.8687180  10.5887540  39.3729260  41.5165620  12.0028090  38.9626680
  38.0170180   7.2045650  34.9762200  37.0909960   7.4466790  34.9667610
  38.4826610   8.0319910  34.8546950  40.1382980  10.3218150  48.2906270
  40.9395710  10.6430200  48.7041670  39.6234800   9.9613730  49.0126180
  44.2427010  10.3102390  30.9246260  45.0355620  10.5991220  30.4728050
  43.7231360   9.8794560  30.2458740  48.9747610   6.4298020  48.2381680
  48.3685770   6.4529620  47.4977430  48.6701720   5.6981060  48.7748930
  50.4047980  10.1578310  46.8491090  51.3569730  10.0736330  46.7991330
  50.2576200  10.8220020  47.5224880  53.2957180   9.5372520  32.3483000
  53.0098690   9.1237660  31.5337180  53.0976730  10.4660230  32.2283520
  37.8580790   2.8091610  47.2342320  38.3619810   2.2298890  47.8058550
  37.1188210   3.0931840  47.7718690  44.7604410   5.5305800  30.7888610
  44.6555050   4.9158150  31.5149990  44.5928630   5.0071690  30.0051620
  44.9118730   4.2162600  46.7677840  44.1464400   4.7847600  46.6832510
  45.0934690   3.9238810  45.8746070  48.0007140   4.5925830  31.3930600
  47.4517240   5.0395130  32.0373340  48.6226400   4.0875080  31.9168270
  52.0542080   5.9467930  47.3252860  52.7951550   6.2843690  46.8220320
  51.2914760   6.1159990  46.7722630  43.6682260   3.5516750  33.2895900
  44.0898680   3.3856620  34.1327290  43.7933100   2.7416980  32.7951040
  46.1809900   2.5754360  30.5373000  46.7015560   1.8603380  30.1714150
  46.8278300   3.2140230  30.8373510  50.7287740   3.9982760  45.8608070
  51.1428760   4.1527840  46.7098490  49.7938740   4.1237980  46.0233850
  45.4902970   3.9503240  43.8304000  45.9091080   4.7935970  43.6580240
  44.5711600   4.0875280  43.6010780  50.1654770   2.2356610  43.7904350
  49.6389990   2.7599230  43.1869490  50.5086110   2.8684000  44.4214080
  43.3410390  10.2556250  44.9461730  42.8031480  10.9802310  44.6270430
  43.5944350   9.7786590  44.1559070  46.1972600  11.4907460  45.2048380
  46.1231300  12.3942600  45.5120750  45.2951440  11.1719360  45.1770450
  46.7457930  10.6565970  32.8274740  47.6408720  10.9950940  32.8493500
  46.7775560   9.9345380  32.1999020  40.3854090   6.0293020  31.0561740
  40.8228960   6.5722690  31.7119320  40.8701820   5.2039970  31.0658080
  37.5999890   8.8182050  38.5082000  37.9302900   7.9503110  38.2760640
  38.0290890   9.0240570  39.3386960  42.1961810   7.1491060  36.1683970
  41.8957350   7.0256030  37.0687880  42.0899300   6.2899650  35.7599700
  38.0890100   9.6852640  41.2463630  37.6521090   9.8653440  42.0787780
  38.6567780  10.4427260  41.1045350  53.7252280   9.1869640  45.5340940
  53.1254270   9.2462200  44.7904860  53.8546180   8.2474620  45.6637790
  54.9653730   6.9287460  30.8710650  54.1346690   6.9964110  31.3417880
  55.1425560   7.8191580  30.5677510  54.4210190   3.6734940  33.3744850
  55.1829100   4.2431590  33.4804540  54.4364560   3.1062140  34.1453160
  37.9214530   2.1972870  37.6052510  37.2663370   1.9284510  36.9612210
  38.7592480   2.0877350  37.1554490  55.4270160   4.5285040  38.2186780
  55.7978990   3.7452360  37.8122750  56.0672090   5.2174140  38.0404080
  52.4103920   5.9121620  43.6317100  51.5963760   6.3418780  43.8942890
  52.8178120   6.5240030  43.0186150  54.4729360   3.9669310  30.5317370
  54.7478200   4.8748190  30.4036590  54.2840100   3.9031840  31.4679360
  38.9590460   2.5825440  42.1455850  39.3263500   2.4952840  43.0251870
  38.3901280   1.8191990  42.0462710  52.4679970  10.6640220  37.1585370
  53.0639040  10.3424790  36.4819790  52.7258120  10.1912040  37.9498640
  40.3742540   7.0958130  47.3076000  40.3312170   6.7251040  48.1890460
  40.5053550   8.0335700  47.4477820  44.0748570   8.6517720  42.9085720
  43.8339930   8.9192280  42.0216240  45.0151210   8.8223450  42.9636580
  55.3352730  10.6712100  43.7096360  54.8411010  11.0680970  42.9923490
  54.7266020  10.0461310  44.1033640  40.2130570  10.0420380  44.4273780
  39.6190890   9.9105080  45.1663820  40.2054410   9.2058520  43.9615880
  53.0192180  11.3135520  40.9883100  52.5595150  12.0651330  40.6141120
  52.3904640  10.5941990  40.9297900  39.8442800   7.4078760  43.3781820
  39.1176860   6.7884050  43.3107770  39.9051950   7.8019370  42.5079900
  43.4487900   9.6223760  40.1631230  43.9652920   9.0111120  39.6379490
  44.0985280  10.1252540  40.6542240  46.1883400  10.5132250  40.9900210
  46.4761210  10.2586550  40.1133220  46.7006620   9.9609610  41.5805780
  38.1272800  10.7253150  36.5878580  37.9594840  10.0923830  37.2860470
  37.2607310  10.9312550  36.2372770  39.7335500   9.4186380  34.0328720
  39.2083120   9.7994410  33.3290680  39.6580080  10.0437150  34.7538430
  46.2555760  11.4348350  48.3568410  47.1823070  11.1992620  48.4004370
  46.2406190  12.2620350  47.8754440  54.4900820  10.9773920  35.3542660
  54.6653010  10.2911660  34.7103580  53.7922390  11.5020970  34.9619330
  42.3328470  11.3668760  32.9077970  43.0647290  11.0828040  32.3601860
  42.5922140  11.1282040  33.7977350  41.4943260   7.4833490  32.9124300
  40.8652140   7.9518590  33.4610130  41.6091090   6.6382710  33.3470490
  52.8233320  10.6618210  48.1809450  53.6158640  10.1667440  47.9735410
  53.1166470  11.3408350  48.7885060  47.0811020   3.3118170  20.9434770
  46.3053120   2.8318610  21.2333340  47.7323950   2.6323820  20.7690930
  41.0976850   3.6237980  21.8210530  40.2661730   3.3686690  22.2207040
  41.7057830   3.6948750  22.5568450  51.1018450   7.7178360  19.7233900
  50.6399980   6.9465600  20.0521070  51.9144000   7.7444430  20.2286350
  41.0778110   7.6578070  22.0168550  41.3806150   6.7675810  21.8378770
  41.8221700   8.2148290  21.7890800  47.3281760  10.0036370  19.3437890
  46.7093200  10.4593870  18.7732330  48.1833540  10.1587830  18.9427590
  46.5220010   5.9875360  20.9504930  46.4528290   5.0465300  20.7894060
  47.2839870   6.0776770  21.5227500  48.1945110   4.8875610  16.7369800
  47.5762380   5.3525060  16.1732520  48.7068360   5.5803090  17.1539310
  43.0576870   4.4151480  23.4153400  42.7246250   5.0420400  24.0574470
  43.2343550   4.9413360  22.6355070  42.2695970   6.3832280  25.2302580
  42.8869970   7.0583360  24.9487030  41.4089090   6.7920260  25.1390080
  37.5628310   5.5732140  14.1109430  37.1856290   6.0619240  13.3794330
  37.8201380   6.2457420  14.7415960  53.1873560   7.8471690  23.1457220
  52.5037080   8.5170800  23.1373890  53.7267850   8.0452340  22.3802080
  50.7232300   9.6915820  21.8602400  50.7359460   9.2878110  20.9924660
  50.1707520  10.4663110  21.7563830  52.0177720   6.4132040  16.9492570
  51.9074050   5.4706370  17.0741990  52.0145970   6.7747680  17.8355330
  50.1217740   4.5945660  23.1885010  50.5386530   4.3805770  22.3538470
  50.8457560   4.8518450  23.7593630  47.5598000   2.0397360  16.3055060
  46.6327280   1.9734740  16.5343530  47.7122820   2.9777490  16.1910300
  54.0679840   2.9932880  23.2801250  53.2398470   3.0625970  22.8051380
  54.6630320   3.5787190  22.8117080  51.5895290   3.6017660  16.8090310
  50.9707710   3.2637210  16.1616610  51.5719740   2.9577420  17.5169500
  43.1654640   2.5662100  19.0874790  42.7611640   1.8539350  18.5920690
  43.2517760   2.2215340  19.9762830  43.6336340   6.2529660  21.2514000
  43.3364630   5.6475130  20.5721780  44.5836160   6.2906970  21.1403360
  51.7221950   9.8261530  24.9137100  51.2452510  10.6333720  24.7209710
  51.0383740   9.1739860  25.0663310  42.7254770   5.9911350  27.9021800
  41.8283300   6.2151320  28.1495200  42.7507640   6.1146290  26.9533200
  49.7659990   2.8404470  13.8163060  50.2053270   2.0026900  13.6700880
  50.4788410   3.4733870  13.9027200  41.5525990   2.8624670  26.4779170
  41.4133760   3.7347470  26.8466570  40.6707350   2.5197480  26.3327110
  47.8755370   7.7800540  17.7844300  48.3151280   8.5224870  17.3699690
  47.8142260   8.0227110  18.7083260  43.3506340   8.8046370  28.6864320
  43.3221770   9.2089320  27.8192750  43.1871310   7.8756730  28.5235920
  55.3021160   9.5873470  29.9828490  55.7780880  10.0656360  30.6617570
  55.9228320   9.5190960  29.2573990  37.5044640   4.6322220  22.3950080
  37.5825060   4.7670990  21.4505800  38.1186320   3.9238110  22.5878200
  38.7492270   6.3322410  18.8056260  38.3420350   6.4737000  17.9509860
  39.6405280   6.0482570  18.6027470  54.7054410   6.7786320  27.1428500
  54.8317470   6.5398200  26.2245680  54.7475790   5.9470860  27.6150580
  48.5671150  10.4814320  25.7123310  49.0815820  10.3922330  26.5145740
  47.7240230  10.8274020  26.0051220  50.5425550  10.7669660  15.1407310
  50.3826690  10.4772600  16.0389140  50.3772260   9.9909790  14.6052540
  43.0213930  10.5468190  16.9178930  42.8456410   9.6303730  16.7046730
  42.1669670  10.9055480  17.1576730  50.2451680   8.2757220  13.7005310
  49.5516840   8.2734510  13.0407590  50.9874540   7.8516540  13.2699480
  49.8101610   9.9019930  17.7753800  50.2658560   9.1209310  18.0892420
  50.1494130  10.6126750  18.3194980  37.5604160   5.6736390  24.9344540
  37.7235200   5.2041750  24.1163910  38.0256610   5.1659950  25.5993380
  39.1343140   5.0487820  27.0940350  38.7497930   4.4081490  27.6923310
  39.4455330   5.7523940  27.6635080  45.2840280   1.8964360  22.5748970
  45.6510410   1.4222930  23.3210310  45.0945340   2.7705930  22.9157310
  41.6021440   5.1433990  15.4900030  40.8283700   4.6031610  15.3298750
  42.3316070   4.6240600  15.1517790  52.3609420   4.1399350  21.2826420
  53.0808540   4.6354640  20.8922530  52.1591240   3.4617240  20.6380290
  47.7428220   4.2108410  27.1695420  47.6765530   3.2904080  26.9153010
  47.1133360   4.3083850  27.8840060  41.6458840   4.8114370  19.1278840
  42.1637510   4.0082630  19.0735730  41.1942860   4.7493510  19.9695670
  46.5328340   6.0780650  14.4006140  46.8744040   6.8222880  13.9049460
  45.7041050   6.3911770  14.7630970  42.3316500   2.2359980  28.9244090
  42.0316640   2.3817160  28.0271910  43.1027740   1.6765270  28.8317480
  47.6744950   7.0328980  26.9199220  47.6889490   6.1009940  26.7018130
  46.9670050   7.1188740  27.5588990  53.8856160   3.6736320  26.2667800
  53.1604350   4.2665100  26.0697190  54.4131620   3.6659860  25.4681170
  53.8369270   8.0711060  15.9179960  53.1945430   7.4166680  16.1923680
  53.4499930   8.4766150  15.1420630  49.4155750   5.3996490  19.7651650
  49.7679570   4.8024620  19.1053020  48.5318080   5.0740720  19.9359900
  45.5019030   6.1594180  17.1722060  46.1890160   6.7063390  17.5529650
  44.7151450   6.7034910  17.2071670  37.6411430   1.7767000  12.6639140
  38.5106280   2.0591800  12.9475060  37.1501750   2.5902870  12.5487950
  44.8046240   3.1640210  16.7847420  45.2609020   3.9745460  17.0107610
  44.4534450   2.8463350  17.6165910  47.1078850   8.6746550  24.0139720
  47.7521070   8.8805930  24.6913140  47.4708290   7.9134950  23.5610570
  48.3810930   6.6778900  22.7317170  49.0233160   5.9772060  22.8449340
  48.9060280   7.4577340  22.5514060  52.2266650   6.9627520  12.4556310
  52.0004230   6.2457960  13.0480950  51.8362850   6.7139960  11.6178060
  50.1548550   7.4773800  25.9353230  50.4904790   8.0640490  26.6131150
  49.2348890   7.3466510  26.1651020  38.0082680  10.9894380  13.2300770
  38.3680320  11.5883720  12.5758040  37.8675020  11.5354270  14.0035800
  51.8082900   4.8799460  14.1170470  51.5204600   5.3412150  14.9048350
  52.6035070   4.4197230  14.3854690  37.9924540   9.2549240  27.7043170
  38.1015660   8.3143980  27.5638560  37.3405100   9.5203990  27.0556900
  45.9837130   7.5265130  29.1041290  45.6634000   6.8074370  29.6486980
  45.3095490   8.2020200  29.1777350  44.0251300   8.3725580  14.0474440
  44.0161400   9.1055270  13.4318950  43.1049660   8.1257160  14.1401400
  39.6257940   3.5940470  14.7921200  39.0185890   4.3339370  14.8016500
  40.1007290   3.6839830  13.9659400  47.0110900   8.4353820  12.7099630
  47.1122880   8.2317810  11.7801610  46.1112640   8.1812100  12.9147410
  45.6529010  10.9540140  17.4047300  45.9070510  10.9161530  16.4826670
  44.7041490  10.8273470  17.3975550  41.6363230   3.5551620  12.5409770
  42.4026500   3.4432980  13.1035200  41.7137920   2.8589590  11.8886540
  53.6607170   9.0440870  20.6560070  53.7854590   9.8672040  21.1283880
  54.5272730   8.8331600  20.3084220  41.1324700  11.1372080  20.3277200
  41.8687180  10.5887540  20.5985770  41.5165620  12.0028090  20.1883190
  38.0170180   7.2045650  16.2018710  37.0909960   7.4466790  16.1924120
  38.4826610   8.0319910  16.0803460  40.1382980  10.3218150  29.5162780
  40.9395710  10.6430200  29.9298180  39.6234800   9.9613730  30.2382690
  44.2427010  10.3102390  12.1502770  45.0355620  10.5991220  11.6984560
  43.7231360   9.8794560  11.4715250  48.9747610   6.4298020  29.4638190
  48.3685770   6.4529620  28.7233940  48.6701720   5.6981060  30.0005440
  50.4047980  10.1578310  28.0747600  51.3569730  10.0736330  28.0247840
  50.2576200  10.8220020  28.7481390  53.2957180   9.5372520  13.5739510
  53.0098690   9.1237660  12.7593690  53.0976730  10.4660230  13.4540030
  37.8580790   2.8091610  28.4598830  38.3619810   2.2298890  29.0315060
  37.1188210   3.0931840  28.9975200  44.7604410   5.5305800  12.0145120
  44.6555050   4.9158150  12.7406500  44.5928630   5.0071690  11.2308130
  44.9118730   4.2162600  27.9934350  44.1464400   4.7847600  27.9089020
  45.0934690   3.9238810  27.1002580  48.0007140   4.5925830  12.6187110
  47.4517240   5.0395130  13.2629850  48.6226400   4.0875080  13.1424780
  52.0542080   5.9467930  28.5509370  52.7951550   6.2843690  28.0476830
  51.2914760   6.1159990  27.9979140  43.6682260   3.5516750  14.5152410
  44.0898680   3.3856620  15.3583800  43.7933100   2.7416980  14.0207550
  46.1809900   2.5754360  11.7629510  46.7015560   1.8603380  11.3970660
  46.8278300   3.2140230  12.0630020  50.7287740   3.9982760  27.0864580
  51.1428760   4.1527840  27.9355000  49.7938740   4.1237980  27.2490360
  45.4902970   3.9503240  25.0560510  45.9091080   4.7935970  24.8836750
  44.5711600   4.0875280  24.8267290  50.1654770   2.2356610  25.0160860
  49.6389990   2.7599230  24.4126000  50.5086110   2.8684000  25.6470590
  43.3410390  10.2556250  26.1718240  42.8031480  10.9802310  25.8526940
  43.5944350   9.7786590  25.3815580  46.1972600  11.4907460  26.4304890
  46.1231300  12.3942600  26.7377260  45.2951440  11.1719360  26.4026960
  46.7457930  10.6565970  14.0531250  47.6408720  10.9950940  14.0750010
  46.7775560   9.9345380  13.4255530  40.3854090   6.0293020  12.2818250
  40.8228960   6.5722690  12.9375830  40.8701820   5.2039970  12.2914590
  37.5999890   8.8182050  19.7338510  37.9302900   7.9503110  19.5017150
  38.0290890   9.0240570  20.5643470  42.1961810   7.1491060  17.3940480
  41.8957350   7.0256030  18.2944390  42.0899300   6.2899650  16.9856210
  38.0890100   9.6852640  22.4720140  37.6521090   9.8653440  23.3044290
  38.6567780  10.4427260  22.3301860  53.7252280   9.1869640  26.7597450
  53.1254270   9.2462200  26.0161370  53.8546180   8.2474620  26.8894300
  54.9653730   6.9287460  12.0967160  54.1346690   6.9964110  12.5674390
  55.1425560   7.8191580  11.7934020  54.4210190   3.6734940  14.6001360
  55.1829100   4.2431590  14.7061050  54.4364560   3.1062140  15.3709670
  37.9214530   2.1972870  18.8309020  37.2663370   1.9284510  18.1868720
  38.7592480   2.0877350  18.3811000  55.4270160   4.5285040  19.4443290
  55.7978990   3.7452360  19.0379260  56.0672090   5.2174140  19.2660590
  52.4103920   5.9121620  24.8573610  51.5963760   6.3418780  25.1199400
  52.8178120   6.5240030  24.2442660  54.4729360   3.9669310  11.7573880
  54.7478200   4.8748190  11.6293100  54.2840100   3.9031840  12.6935870
  38.9590460   2.5825440  23.3712360  39.3263500   2.4952840  24.2508380
  38.3901280   1.8191990  23.2719220  52.4679970  10.6640220  18.3841880
  53.0639040  10.3424790  17.7076300  52.7258120  10.1912040  19.1755150
  40.3742540   7.0958130  28.5332510  40.3312170   6.7251040  29.4146970
  40.5053550   8.0335700  28.6734330  44.0748570   8.6517720  24.1342230
  43.8339930   8.9192280  23.2472750  45.0151210   8.8223450  24.1893090
  55.3352730  10.6712100  24.9352870  54.8411010  11.0680970  24.2180000
  54.7266020  10.0461310  25.3290150  40.2130570  10.0420380  25.6530290
  39.6190890   9.9105080  26.3920330  40.2054410   9.2058520  25.1872390
  53.0192180  11.3135520  22.2139610  52.5595150  12.0651330  21.8397630
  52.3904640  10.5941990  22.1554410  39.8442800   7.4078760  24.6038330
  39.1176860   6.7884050  24.5364280  39.9051950   7.8019370  23.7336410
  43.4487900   9.6223760  21.3887740  43.9652920   9.0111120  20.8636000
  44.0985280  10.1252540  21.8798750  46.1883400  10.5132250  22.2156720
  46.4761210  10.2586550  21.3389730  46.7006620   9.9609610  22.8062290
  38.1272800  10.7253150  17.8135090  37.9594840  10.0923830  18.5116980
  37.2607310  10.9312550  17.4629280  39.7335500   9.4186380  15.2585230
  39.2083120   9.7994410  14.5547190  39.6580080  10.0437150  15.9794940
  46.2555760  11.4348350  29.5824920  47.1823070  11.1992620  29.6260880
  46.2406190  12.2620350  29.1010950  54.4900820  10.9773920  16.5799170
  54.6653010  10.2911660  15.9360090  53.7922390  11.5020970  16.1875840
  42.3328470  11.3668760  14.1334480  43.0647290  11.0828040  13.5858370
  42.5922140  11.1282040  15.0233860  41.4943260   7.4833490  14.1380810
  40.8652140   7.9518590  14.6866640  41.6091090   6.6382710  14.5727000
  52.8233320  10.6618210  29.4065960  53.6158640  10.1667440  29.1991920
  53.1166470  11.3408350  30.0141570  47.0811020   3.3118170   2.1691280
  46.3053120   2.8318610   2.4589850  47.7323950   2.6323820   1.9947440
  41.0976850   3.6237980   3.0467040  40.2661730   3.3686690   3.4463550
  41.7057830   3.6948750   3.7824960  41.0778110   7.6578070   3.2425060
  41.3806150   6.7675810   3.0635280  41.8221700   8.2148290   3.0147310
  46.5220010   5.9875360   2.1761440  46.4528290   5.0465300   2.0150570
  47.2839870   6.0776770   2.7484010  43.0576870   4.4151480   4.6409910
  42.7246250   5.0420400   5.2830980  43.2343550   4.9413360   3.8611580
  42.2695970   6.3832280   6.4559090  42.8869970   7.0583360   6.1743540
  41.4089090   6.7920260   6.3646590  53.1873560   7.8471690   4.3713730
  52.5037080   8.5170800   4.3630400  53.7267850   8.0452340   3.6058590
  50.7232300   9.6915820   3.0858910  50.7359460   9.2878110   2.2181170
  50.1707520  10.4663110   2.9820340  50.1217740   4.5945660   4.4141520
  50.5386530   4.3805770   3.5794980  50.8457560   4.8518450   4.9850140
  54.0679840   2.9932880   4.5057760  53.2398470   3.0625970   4.0307890
  54.6630320   3.5787190   4.0373590  43.6336340   6.2529660   2.4770510
  43.3364630   5.6475130   1.7978290  44.5836160   6.2906970   2.3659870
  51.7221950   9.8261530   6.1393610  51.2452510  10.6333720   5.9466220
  51.0383740   9.1739860   6.2919820  42.7254770   5.9911350   9.1278310
  41.8283300   6.2151320   9.3751710  42.7507640   6.1146290   8.1789710
  41.5525990   2.8624670   7.7035680  41.4133760   3.7347470   8.0723080
  40.6707350   2.5197480   7.5583620  43.3506340   8.8046370   9.9120830
  43.3221770   9.2089320   9.0449260  43.1871310   7.8756730   9.7492430
  55.3021160   9.5873470  11.2085000  55.7780880  10.0656360  11.8874080
  55.9228320   9.5190960  10.4830500  37.5044640   4.6322220   3.6206590
  37.5825060   4.7670990   2.6762310  38.1186320   3.9238110   3.8134710
  54.7054410   6.7786320   8.3685010  54.8317470   6.5398200   7.4502190
  54.7475790   5.9470860   8.8407090  48.5671150  10.4814320   6.9379820
  49.0815820  10.3922330   7.7402250  47.7240230  10.8274020   7.2307730
  37.5604160   5.6736390   6.1601050  37.7235200   5.2041750   5.3420420
  38.0256610   5.1659950   6.8249890  39.1343140   5.0487820   8.3196860
  38.7497930   4.4081490   8.9179820  39.4455330   5.7523940   8.8891590
  45.2840280   1.8964360   3.8005480  45.6510410   1.4222930   4.5466820
  45.0945340   2.7705930   4.1413820  52.3609420   4.1399350   2.5082930
  53.0808540   4.6354640   2.1179040  52.1591240   3.4617240   1.8636800
  47.7428220   4.2108410   8.3951930  47.6765530   3.2904080   8.1409520
  47.1133360   4.3083850   9.1096570  42.3316500   2.2359980  10.1500600
  42.0316640   2.3817160   9.2528420  43.1027740   1.6765270  10.0573990
  47.6744950   7.0328980   8.1455730  47.6889490   6.1009940   7.9274640
  46.9670050   7.1188740   8.7845500  53.8856160   3.6736320   7.4924310
  53.1604350   4.2665100   7.2953700  54.4131620   3.6659860   6.6937680
  47.1078850   8.6746550   5.2396230  47.7521070   8.8805930   5.9169650
  47.4708290   7.9134950   4.7867080  48.3810930   6.6778900   3.9573680
  49.0233160   5.9772060   4.0705850  48.9060280   7.4577340   3.7770570
  50.1548550   7.4773800   7.1609740  50.4904790   8.0640490   7.8387660
  49.2348890   7.3466510   7.3907530  37.9924540   9.2549240   8.9299680
  38.1015660   8.3143980   8.7895070  37.3405100   9.5203990   8.2813410
  45.9837130   7.5265130  10.3297800  45.6634000   6.8074370  10.8743490
  45.3095490   8.2020200  10.4033860  40.1382980  10.3218150  10.7419290
  40.9395710  10.6430200  11.1554690  39.6234800   9.9613730  11.4639200
  48.9747610   6.4298020  10.6894700  48.3685770   6.4529620   9.9490450
  48.6701720   5.6981060  11.2261950  50.4047980  10.1578310   9.3004110
  51.3569730  10.0736330   9.2504350  50.2576200  10.8220020   9.9737900
  37.8580790   2.8091610   9.6855340  38.3619810   2.2298890  10.2571570
  37.1188210   3.0931840  10.2231710  44.9118730   4.2162600   9.2190860
  44.1464400   4.7847600   9.1345530  45.0934690   3.9238810   8.3259090
  52.0542080   5.9467930   9.7765880  52.7951550   6.2843690   9.2733340
  51.2914760   6.1159990   9.2235650  50.7287740   3.9982760   8.3121090
  51.1428760   4.1527840   9.1611510  49.7938740   4.1237980   8.4746870
  45.4902970   3.9503240   6.2817020  45.9091080   4.7935970   6.1093260
  44.5711600   4.0875280   6.0523800  50.1654770   2.2356610   6.2417370
  49.6389990   2.7599230   5.6382510  50.5086110   2.8684000   6.8727100
  43.3410390  10.2556250   7.3974750  42.8031480  10.9802310   7.0783450
  43.5944350   9.7786590   6.6072090  46.1972600  11.4907460   7.6561400
  46.1231300  12.3942600   7.9633770  45.2951440  11.1719360   7.6283470
  38.0890100   9.6852640   3.6976650  37.6521090   9.8653440   4.5300800
  38.6567780  10.4427260   3.5558370  53.7252280   9.1869640   7.9853960
  53.1254270   9.2462200   7.2417880  53.8546180   8.2474620   8.1150810
  52.4103920   5.9121620   6.0830120  51.5963760   6.3418780   6.3455910
  52.8178120   6.5240030   5.4699170  38.9590460   2.5825440   4.5968870
  39.3263500   2.4952840   5.4764890  38.3901280   1.8191990   4.4975730
  40.3742540   7.0958130   9.7589020  40.3312170   6.7251040  10.6403480
  40.5053550   8.0335700   9.8990840  44.0748570   8.6517720   5.3598740
  43.8339930   8.9192280   4.4729260  45.0151210   8.8223450   5.4149600
  55.3352730  10.6712100   6.1609380  54.8411010  11.0680970   5.4436510
  54.7266020  10.0461310   6.5546660  40.2130570  10.0420380   6.8786800
  39.6190890   9.9105080   7.6176840  40.2054410   9.2058520   6.4128900
  53.0192180  11.3135520   3.4396120  52.5595150  12.0651330   3.0654140
  52.3904640  10.5941990   3.3810920  39.8442800   7.4078760   5.8294840
  39.1176860   6.7884050   5.7620790  39.9051950   7.8019370   4.9592920
  43.4487900   9.6223760   2.6144250  43.9652920   9.0111120   2.0892510
  44.0985280  10.1252540   3.1055260  46.1883400  10.5132250   3.4413230
  46.4761210  10.2586550   2.5646240  46.7006620   9.9609610   4.0318800
  46.2555760  11.4348350  10.8081430  47.1823070  11.1992620  10.8517390
  46.2406190  12.2620350  10.3267460  52.8233320  10.6618210  10.6322470
  53.6158640  10.1667440  10.4248430  53.1166470  11.3408350  11.2398080
  30.1749490  95.4056600  94.1599460  30.0943540  94.4911210  93.8891170
  29.7613910  95.9023670  93.4539170  20.7325310  92.4557320  90.7026880
  19.8442010  92.7973290  90.6006760  21.0166500  92.2557640  89.8107710
  22.9086700  91.0388820  91.7365260  23.0153450  91.9392550  92.0434020
  21.9979060  90.9906790  91.4459910  32.5605810  90.1613630  93.2076160
  33.3815430  89.6710200  93.2501640  32.5939890  90.7511290  93.9608000
  26.3973750  87.8465980  94.6668900  26.7048730  87.2912870  93.9504400
  25.4674450  87.9810440  94.4841890  28.7854510  95.9114810  91.4029020
  27.8583790  95.8452190  91.6317490  28.9379330  96.8494940  91.2884260
  28.7723590  92.1831810  88.3996180  27.8327260  92.3445770  88.4848640
  29.0906850  92.9017490  87.8532170  24.3911150  96.4379550  94.1848750
  23.9868150  95.7256800  93.6894650  24.4774270  96.0932790  95.0736790
  34.5733640  87.9664730  87.2278060  34.2606300  88.0591560  88.1277130
  35.3346110  88.5445760  87.1775490  21.0915780  95.3324530  91.6855400
  20.9713380  96.0586620  91.0736670  20.7816670  94.5627440  91.2083310
  23.5579440  88.6759600  95.0679070  23.1147590  89.4569140  94.7363590
  24.1164430  88.9989490  95.7750010  26.6738260  88.2970300  89.9484900
  26.0492440  88.2930170  90.6738210  26.5868380  87.4301260  89.5520870
  23.3493660  93.7993170  92.7960320  23.1234580  93.5830340  93.7006940
  22.5686190  94.2321630  92.4506290  30.5791420  93.8056540  91.3950970
  29.9800310  94.5292340  91.2114590  31.1271030  93.7433320  90.6127420
  29.1856290  92.4420080  93.4254250  29.5785860  92.7592280  92.6122940
  29.5473140  91.5631960  93.5398770  18.4090690  92.9741000  86.8587170
  18.3265360  93.9171760  87.0002160  18.0573750  92.8315910  85.9799520
  26.2088820  91.7080030  95.9257520  26.2124880  91.2669980  95.0762060
  27.1039940  92.0297360  96.0329340  22.0591200  91.5906520  94.8851730
  21.7191250  92.0681750  95.6418780  21.2968520  91.1371640  94.5252830
  26.2708970  92.7092110  88.9164280  26.3921790  92.6678590  89.8650100
  25.8857480  93.5716260  88.7611010  25.2830470  95.0193250  88.3147580
  24.7147370  94.5711500  87.6883490  25.9919470  95.3786030  87.7812730
  19.3737280  90.5125500  93.8016400  19.0884200  90.1481170  94.6395020
  19.3116140  89.7805960  93.1879540  29.0475870  89.4054760  90.5229770
  28.2340480  88.9067930  90.4475080  28.8537820  90.2453010  90.1066120
  31.7624260  93.7774410  88.8191930  32.6503880  94.0891640  88.6443270
  31.7329350  92.9046660  88.4272510  34.0338530  95.0886250  88.2871790
  33.9502250  95.5200470  87.4368230  34.7532720  95.5484600  88.7198610
  18.8667940  95.6484450  87.7613100  19.7362790  95.9309250  88.0449020
  18.3758260  96.4620320  87.6461910  21.9314530  87.3795310  92.3543900
  21.8029160  87.3713210  93.3028820  21.1076550  87.7178400  92.0034910
  33.7909270  90.5865680  90.3739610  33.1622430  90.6911350  89.6597840
  33.2961190  90.8062460  91.1633490  25.7593300  92.8651630  91.7897490
  25.0509450  93.3337970  92.2311100  26.0437780  92.2073640  92.4242680
  29.7908730  89.5902290  93.2293280  29.6676510  89.6088420  92.2802790
  30.7393290  89.6381230  93.3491680  23.9628320  91.1736710  89.1648200
  24.8118850  91.6106860  89.0988390  23.5959590  91.4856970  89.9920260
  32.8838100  95.7449470  94.0779770  31.9428240  95.7599700  94.2527460
  33.1982170  94.9585430  94.5240070  21.5566500  94.8594140  88.3216620
  21.6370090  93.9121650  88.4334020  22.4486250  95.1901020  88.4277280
  27.4066410  96.4471810  86.8603470  27.9272070  95.7320830  86.4944620
  28.0534810  97.0857680  87.1603980  23.7897670  93.4967430  86.5584530
  23.5886730  92.6334790  86.9197870  23.6189720  93.4100790  85.6206130
  31.2685980  88.3075660  89.0871410  31.5488270  87.4643560  89.4430830
  30.4951710  88.5398770  89.6010160  22.5880470  90.5968050  86.5462410
  22.8906370  90.6035480  85.6381560  23.3275060  90.2465910  87.0430070
  25.8065400  89.5402670  87.5318610  25.4587400  88.8626660  86.9521060
  26.0078170  89.0792180  88.3462000  19.1471040  96.0690320  93.9282980
  18.4919880  95.8001960  93.2842680  19.9848990  95.9594800  93.4784960
  32.0961480  90.8631610  88.1501470  32.5146360  90.6762590  87.3098130
  31.7897540  90.0110660  88.4604400  35.5951210  95.7755750  91.8477270
  35.2194810  95.0083680  91.4158560  34.8654330  96.1578450  92.3352200
  18.3609120  93.2789250  89.8708310  17.4573200  93.5419450  89.6959970
  18.8449740  93.5500420  89.0908270  34.8702170  94.0013240  95.1484510
  35.3939650  93.5075890  94.5174680  35.4561590  94.1363600  95.8932080
  20.9036330  92.3354790  87.7802690  21.6128030  91.9138010  87.2949970
  20.1876270  92.4030020  87.1486040  20.5510490  88.3894120  86.8205340
  21.2738620  88.9303060  87.1386560  20.8235010  88.1157540  85.9446880
  34.3602140  93.2586590  91.0876920  34.8561260  93.0257460  91.8725800
  34.1618210  92.4198430  90.6714560  35.7889300  91.8947540  93.6214600
  35.6788580  91.7403580  94.5596870  36.5496890  91.3668480  93.3790010
  36.6779570  89.7255460  86.8620740  37.6028880  89.5936640  86.6539030
  36.6555360  89.8048280  87.8157190  36.7518060  90.4966120  89.4877450
  35.9569560  90.4311240  90.0170360  36.9561340  91.4316760  89.4762800
  33.1837990  88.8263000  95.9376280  33.6246080  88.7708100  95.0897880
  32.9145580  89.7421010  96.0086460  35.0476560  88.4578240  93.9485100
  34.9864960  87.5139460  93.8016120  35.8268590  88.5658330  94.4938560
  19.9757330  88.4287380  90.4140910  20.7336690  88.5416260  89.8404940
  19.5134500  89.2656580  90.3684340  26.5171140  90.5426650  93.4043220
  25.7045650  90.1683540  93.0639100  27.0212780  89.7871730  93.7064410
  31.0196120  87.2069100  94.6426290  31.6225490  87.7789310  95.1174810
  30.2789110  87.7708540  94.4200190  34.1630720  87.6090660  89.9166570
  34.3581350  88.5074110  90.1834000  33.3760590  87.3777740  90.4099520
  22.3482480  88.9551430  88.9542880  22.8775240  88.1681230  88.8250830
  22.9810800  89.6342620  89.1878410  24.5420320  88.6926570  92.0088270
  23.9123060  87.9913880  92.1758400  24.0025460  89.4530700  91.7921430
  30.1749490  95.4056600  75.3855970  30.0943540  94.4911210  75.1147680
  29.7613910  95.9023670  74.6795680  28.3067530  97.1835620  77.2665240
  27.5309630  96.7036060  77.5563810  28.9580460  96.5041270  77.0921400
  20.7325310  92.4557320  71.9283390  19.8442010  92.7973290  71.8263270
  21.0166500  92.2557640  71.0364220  18.6958320  95.0562970  77.8123090
  19.2674430  94.2885170  77.8126730  18.6959860  95.3551730  76.9029700
  19.9383190  90.4647330  79.5992020  19.7586030  89.5673080  79.8794780
  19.5363270  91.0119200  80.2738970  28.7781690  92.6663190  77.5004330
  29.1546510  91.7935070  77.3878000  28.6801200  93.0021890  76.6094770
  22.9086700  91.0388820  72.9621770  23.0153450  91.9392550  73.2690530
  21.9979060  90.9906790  72.6716420  32.5605810  90.1613630  74.4332670
  33.3815430  89.6710200  74.4758150  32.5939890  90.7511290  75.1864510
  20.5569860  92.9607830  78.2074360  21.2379970  93.2246200  78.8261760
  20.2417910  92.1208700  78.5412370  24.7494430  94.0075190  77.2946950
  25.2572650  94.5056160  77.9351970  25.2807670  93.2310390  77.1186310
  36.8505360  92.1780380  80.9976300  36.1457530  92.5662090  80.4791410
  37.1163280  92.8730670  81.5997230  23.0330530  88.6473750  81.5610370
  23.0348970  89.1646140  80.7556270  22.2034840  88.1703930  81.5380300
  32.7967290  92.1014010  77.2060210  32.0922860  92.3898900  77.7863320
  33.1579450  92.9114120  76.8459770  22.7145860  90.3583710  79.5680820
  23.0562670  91.2025760  79.2734690  21.7761670  90.5067450  79.6846160
  35.8654210  91.5468800  77.5969420  34.9179120  91.5807780  77.7284850
  36.1904200  92.3607750  77.9818780  26.3973750  87.8465980  75.8925410
  26.7048730  87.2912870  75.1760910  25.4674450  87.9810440  75.7098400
  28.7854510  95.9114810  72.6285530  27.8583790  95.8452190  72.8574000
  28.9379330  96.8494940  72.5140770  28.7723590  92.1831810  69.6252690
  27.8327260  92.3445770  69.7105150  29.0906850  92.9017490  69.0788680
  32.2578360  93.6519650  80.5486590  31.8449540  94.4773360  80.8026580
  31.5254310  93.0664690  80.3562950  24.3911150  96.4379550  75.4105260
  23.9868150  95.7256800  74.9151160  24.4774270  96.0932790  76.2993300
  23.1039770  93.2122760  79.1904300  23.6554360  93.3218100  78.4157550
  23.6183280  93.5860360  79.9059530  34.5733640  87.9664730  68.4534570
  34.2606300  88.0591560  69.3533640  35.3346110  88.5445760  68.4032000
  21.0915780  95.3324530  72.9111910  20.9713380  96.0586620  72.2993180
  20.7816670  94.5627440  72.4339820  35.7834930  92.7036230  84.4308710
  35.1679200  93.2115900  83.9024170  35.4631350  91.8034560  84.3734650
  23.5579440  88.6759600  76.2935580  23.1147590  89.4569140  75.9620100
  24.1164430  88.9989490  77.0006520  27.8449250  91.5428120  81.8970900
  27.3828620  91.7511140  82.7090840  27.4427360  90.7287470  81.5941570
  32.8453760  92.7637070  83.0267560  31.9947350  92.4642820  83.3476630
  32.6855550  93.0079080  82.1151380  29.9403470  94.2638820  85.1266350
  30.2656880  93.4302570  84.7868580  30.7283800  94.7867340  85.2744680
  26.6738260  88.2970300  71.1741410  26.0492440  88.2930170  71.8994720
  26.5868380  87.4301260  70.7777380  25.5955340  89.2206930  78.1525180
  25.8927670  90.1269760  78.0717200  26.1440900  88.7325710  77.5384750
  23.3493660  93.7993170  74.0216830  23.1234580  93.5830340  74.9263450
  22.5686190  94.2321630  73.6762800  30.5791420  93.8056540  72.6207480
  29.9800310  94.5292340  72.4371100  31.1271030  93.7433320  71.8383930
  25.7892870  94.6978750  84.6877100  25.6936470  93.7573480  84.5377500
  26.6324850  94.9193820  84.2925170  29.1856290  92.4420080  74.6510760
  29.5785860  92.7592280  73.8379450  29.5473140  91.5631960  74.7655280
  20.9203410  91.1092420  82.8410880  20.5266800  91.9567630  83.0483660
  20.2321810  90.4718790  83.0319520  27.4948460  91.1927390  85.9107620
  26.8046780  90.9999590  86.5453710  28.2380760  91.4762030  86.4431920
  18.2220460  89.0320880  76.8740960  17.9333510  89.6023740  77.5865940
  18.9666220  88.5525330  77.2372190  18.4090690  92.9741000  68.0843680
  18.3265360  93.9171760  68.2258670  18.0573750  92.8315910  67.2056030
  29.7711430  95.0325830  78.7461540  29.0392550  95.5412640  79.0951640
  29.3735770  94.2155810  78.4450320  26.2088820  91.7080030  77.1514030
  26.2124880  91.2669980  76.3018570  27.1039940  92.0297360  77.2585850
  22.0591200  91.5906520  76.1108240  21.7191250  92.0681750  76.8675290
  21.2968520  91.1371640  75.7509340  26.2708970  92.7092110  70.1420790
  26.3921790  92.6678590  71.0906610  25.8857480  93.5716260  69.9867520
  30.2337340  90.4859510  78.1584480  30.2510080  90.9368160  79.0026330
  29.9852920  89.5865150  78.3717920  25.2830470  95.0193250  69.5404090
  24.7147370  94.5711500  68.9140000  25.9919470  95.3786030  69.0069240
  33.6608090  87.8991690  83.9970860  33.9853860  87.1681350  84.5228840
  33.6964600  87.5805330  83.0951850  26.5096790  95.7681810  78.8979440
  26.8766920  95.2940380  79.6440780  26.3201850  96.6423380  79.2387780
  19.3737280  90.5125500  75.0272910  19.0884200  90.1481170  75.8651530
  19.3116140  89.7805960  74.4136050  24.2996160  94.8090450  81.2163650
  23.9953230  95.6882430  81.4414010  25.2542620  94.8690240  81.2521090
  29.0475870  89.4054760  71.7486280  28.2340480  88.9067930  71.6731590
  28.8537820  90.2453010  71.3322630  31.7624260  93.7774410  70.0448440
  32.6503880  94.0891640  69.8699780  31.7329350  92.9046660  69.6529020
  20.3559890  95.6493190  82.3635010  19.9974830  96.3147040  82.9508350
  20.0614450  94.8176740  82.7347630  23.5573010  96.1077430  85.2474560
  23.2573150  96.2534610  84.3502380  24.3284250  95.5482720  85.1547950
  34.0338530  95.0886250  69.5128300  33.9502250  95.5200470  68.6624740
  34.7532720  95.5484600  69.9455120  18.8667940  95.6484450  68.9869610
  19.7362790  95.9309250  69.2705530  18.3758260  96.4620320  68.8718420
  21.9314530  87.3795310  73.5800410  21.8029160  87.3713210  74.5285330
  21.1076550  87.7178400  73.2291420  18.9308460  89.1386430  83.0407110
  18.2166980  89.3383350  83.6459720  19.3503500  88.3626000  83.4121910
  30.4247240  91.6308740  80.7908560  30.7928060  90.8103950  81.1188130
  29.5645440  91.6910630  81.2064210  33.7909270  90.5865680  71.5996120
  33.1622430  90.6911350  70.8854350  33.2961190  90.8062460  72.3890000
  25.7593300  92.8651630  73.0154000  25.0509450  93.3337970  73.4567610
  26.0437780  92.2073640  73.6499190  27.3849230  94.2848330  81.0146530
  27.8834480  94.7594150  81.6798380  27.5272180  93.3611850  81.2216560
  29.7908730  89.5902290  74.4549790  29.6676510  89.6088420  73.5059300
  30.7393290  89.6381230  74.5748190  23.9628320  91.1736710  70.3904710
  24.8118850  91.6106860  70.3244900  23.5959590  91.4856970  71.2176770
  34.5916090  90.5016290  81.8574920  34.0889690  91.2421690  82.1968730
  35.4072750  90.8900290  81.5411710  32.8838100  95.7449470  75.3036280
  31.9428240  95.7599700  75.4783970  33.1982170  94.9585430  75.7496580
  21.5566500  94.8594140  69.5473130  21.6370090  93.9121650  69.6590530
  22.4486250  95.1901020  69.6533790  19.0837300  96.6809060  84.7829300
  19.5876320  96.1016340  85.3545530  18.3444720  96.9649290  85.3205670
  21.1160380  94.8238650  85.6779370  21.1565720  94.5252520  86.5864600
  21.9705880  95.2246260  85.5186890  23.0566190  93.4030750  83.6453860
  22.5262650  92.9121700  83.0177200  23.7254260  93.8314950  83.1111790
  27.4066410  96.4471810  68.0859980  27.9272070  95.7320830  67.7201130
  28.0534810  97.0857680  68.3860490  32.4266420  95.2096370  85.4134200
  33.0087190  94.4548690  85.3254680  32.6028190  95.7403810  84.6365680
  23.5438490  90.3693120  83.7251150  23.4495360  89.7513870  83.0002020
  22.9635880  91.0959410  83.4981060  26.3099930  88.9266360  80.7578540
  25.8617230  88.9490620  79.9124090  25.6765130  88.5285380  81.3548840
  29.0523380  95.5536870  82.7628820  29.1719590  94.9578010  83.5023660
  29.9117380  95.5906560  82.3430120  31.3911280  96.1074060  81.3391330
  30.8646500  96.6316680  80.7356470  31.7342620  96.7401450  81.9701060
  23.7897670  93.4967430  67.7841040  23.5886730  92.6334790  68.1454380
  23.6189720  93.4100790  66.8462640  25.8192150  92.0958220  84.0204640
  26.4091840  91.7874070  84.7082460  25.0012390  91.6237970  84.1764540
  30.6385580  91.7124030  84.2537660  29.9501100  91.0505570  84.1887650
  31.3591600  91.2662300  84.6986120  31.2685980  88.3075660  70.3127920
  31.5488270  87.4643560  70.6687340  30.4951710  88.5398770  70.8266670
  22.5880470  90.5968050  67.7718920  22.8906370  90.6035480  66.8638070
  23.3275060  90.2465910  68.2686580  25.8065400  89.5402670  68.7575120
  25.4587400  88.8626660  68.1777570  26.0078170  89.0792180  69.5718510
  19.1471040  96.0690320  75.1539490  18.4919880  95.8001960  74.5099190
  19.9848990  95.9594800  74.7041470  32.0961480  90.8631610  69.3757980
  32.5146360  90.6762590  68.5354640  31.7897540  90.0110660  69.6860910
  35.5951210  95.7755750  73.0733780  35.2194810  95.0083680  72.6415070
  34.8654330  96.1578450  73.5608710  20.1846970  96.4542890  79.6942830
  20.5520010  96.3670290  80.5738850  19.6157790  95.6909440  79.5949690
  34.9850830  94.9227270  82.7073300  34.7536920  94.6940020  81.8071250
  35.2455380  95.8426820  82.6618190  19.7362970  93.3651980  83.6001250
  18.8419020  93.3318740  83.9394960  20.2760520  93.5638770  84.3652500
  33.4238900  90.1483700  85.4853000  34.3009080  90.1567100  85.8687000
  33.4359740  89.4114540  84.8745350  18.3609120  93.2789250  71.0964820
  17.4573200  93.5419450  70.9216480  18.8449740  93.5500420  70.3164780
  34.8702170  94.0013240  76.3741020  35.3939650  93.5075890  75.7431190
  35.4561590  94.1363600  77.1188590  35.0491890  94.0853110  79.8960570
  34.0994600  94.0516650  80.0105560  35.2304900  94.9953220  79.6610340
  20.9036330  92.3354790  69.0059200  21.6128030  91.9138010  68.5206480
  20.1876270  92.4030020  68.3742550  20.5510490  88.3894120  68.0461850
  21.2738620  88.9303060  68.3643070  20.8235010  88.1157540  67.1703390
  34.3602140  93.2586590  72.3133430  34.8561260  93.0257460  73.0982310
  34.1618210  92.4198430  71.8971070  20.2402680  87.6400310  77.9484470
  20.8878870  87.0897690  77.5079630  20.6604520  87.8943460  78.7700280
  35.7889300  91.8947540  74.8471110  35.6788580  91.7403580  75.7853380
  36.5496890  91.3668480  74.6046520  34.1355020  87.8341670  81.3054110
  34.7727240  88.4475810  81.6713300  34.2829910  87.8702330  80.3603340
  36.6779570  89.7255460  68.0877250  37.6028880  89.5936640  67.8795540
  36.6555360  89.8048280  69.0413700  36.7518060  90.4966120  70.7133960
  35.9569560  90.4311240  71.2426870  36.9561340  91.4316760  70.7019310
  19.9934680  87.7955980  80.6909790  19.6449500  88.2519800  81.4567970
  19.6622380  86.9013110  80.7732220  27.5059500  88.9867860  84.2129210
  27.4448390  89.5789690  84.9624620  28.4459880  88.8793820  84.0679470
  30.1434060  88.6437920  83.8521500  30.7574470  88.9617210  83.1902580
  30.6883620  88.1586510  84.4717360  20.6655320  87.3232180  83.9660560
  21.2138310  87.1420230  83.2026670  20.7310630  86.5326290  84.5016870
  30.8842100  87.2070060  80.1790790  30.0101940  87.5405170  79.9763720
  30.7752850  86.7343240  81.0042660  31.7914080  89.4140930  81.5632510
  31.4627440  88.5992690  81.1834240  32.7396380  89.3710740  81.4398200
  28.6316920  88.1239900  79.1183700  27.8488710  88.5985400  79.3980460
  28.3379850  87.2194730  79.0096880  33.1837990  88.8263000  77.1632790
  33.6246080  88.7708100  76.3154390  32.9145580  89.7421010  77.2342970
  35.0476560  88.4578240  75.1741610  34.9864960  87.5139460  75.0272630
  35.8268590  88.5658330  75.7195070  19.9757330  88.4287380  71.6397420
  20.7336690  88.5416260  71.0661450  19.5134500  89.2656580  71.5940850
  26.5171140  90.5426650  74.6299730  25.7045650  90.1683540  74.2895610
  27.0212780  89.7871730  74.9320920  31.0196120  87.2069100  75.8682800
  31.6225490  87.7789310  76.3431320  30.2789110  87.7708540  75.6456700
  34.1630720  87.6090660  71.1423080  34.3581350  88.5074110  71.4090510
  33.3760590  87.3777740  71.6356030  22.3482480  88.9551430  70.1799390
  22.8775240  88.1681230  70.0507340  22.9810800  89.6342620  70.4134920
  24.5420320  88.6926570  73.2344780  23.9123060  87.9913880  73.4014910
  24.0025460  89.4530700  73.0177940  24.6675880  87.9710550  85.6697270
  24.3860150  88.4744150  84.9058090  25.0495580  87.1732300  85.3039400
  31.2691340  87.3864130  86.2477740  31.1556790  87.7058740  87.1429260
  32.0861080  87.7876640  85.9515020  30.1749490  95.4056600  56.6112480
  30.0943540  94.4911210  56.3404190  29.7613910  95.9023670  55.9052190
  28.3067530  97.1835620  58.4921750  27.5309630  96.7036060  58.7820320
  28.9580460  96.5041270  58.3177910  20.7325310  92.4557320  53.1539900
  19.8442010  92.7973290  53.0519780  21.0166500  92.2557640  52.2620730
  18.6958320  95.0562970  59.0379600  19.2674430  94.2885170  59.0383240
  18.6959860  95.3551730  58.1286210  19.9383190  90.4647330  60.8248530
  19.7586030  89.5673080  61.1051290  19.5363270  91.0119200  61.4995480
  28.7781690  92.6663190  58.7260840  29.1546510  91.7935070  58.6134510
  28.6801200  93.0021890  57.8351280  22.9086700  91.0388820  54.1878280
  23.0153450  91.9392550  54.4947040  21.9979060  90.9906790  53.8972930
  32.5605810  90.1613630  55.6589180  33.3815430  89.6710200  55.7014660
  32.5939890  90.7511290  56.4121020  20.5569860  92.9607830  59.4330870
  21.2379970  93.2246200  60.0518270  20.2417910  92.1208700  59.7668880
  24.7494430  94.0075190  58.5203460  25.2572650  94.5056160  59.1608480
  25.2807670  93.2310390  58.3442820  36.8505360  92.1780380  62.2232810
  36.1457530  92.5662090  61.7047920  37.1163280  92.8730670  62.8253740
  23.0330530  88.6473750  62.7866880  23.0348970  89.1646140  61.9812780
  22.2034840  88.1703930  62.7636810  32.7967290  92.1014010  58.4316720
  32.0922860  92.3898900  59.0119830  33.1579450  92.9114120  58.0716280
  22.7145860  90.3583710  60.7937330  23.0562670  91.2025760  60.4991200
  21.7761670  90.5067450  60.9102670  35.8654210  91.5468800  58.8225930
  34.9179120  91.5807780  58.9541360  36.1904200  92.3607750  59.2075290
  26.3973750  87.8465980  57.1181920  26.7048730  87.2912870  56.4017420
  25.4674450  87.9810440  56.9354910  28.7854510  95.9114810  53.8542040
  27.8583790  95.8452190  54.0830510  28.9379330  96.8494940  53.7397280
  28.7723590  92.1831810  50.8509200  27.8327260  92.3445770  50.9361660
  29.0906850  92.9017490  50.3045190  32.2578360  93.6519650  61.7743100
  31.8449540  94.4773360  62.0283090  31.5254310  93.0664690  61.5819460
  24.3911150  96.4379550  56.6361770  23.9868150  95.7256800  56.1407670
  24.4774270  96.0932790  57.5249810  23.1039770  93.2122760  60.4160810
  23.6554360  93.3218100  59.6414060  23.6183280  93.5860360  61.1316040
  34.5733640  87.9664730  49.6791080  34.2606300  88.0591560  50.5790150
  35.3346110  88.5445760  49.6288510  21.0915780  95.3324530  54.1368420
  20.9713380  96.0586620  53.5249690  20.7816670  94.5627440  53.6596330
  35.7834930  92.7036230  65.6565220  35.1679200  93.2115900  65.1280680
  35.4631350  91.8034560  65.5991160  23.5579440  88.6759600  57.5192090
  23.1147590  89.4569140  57.1876610  24.1164430  88.9989490  58.2263030
  27.8449250  91.5428120  63.1227410  27.3828620  91.7511140  63.9347350
  27.4427360  90.7287470  62.8198080  32.8453760  92.7637070  64.2524070
  31.9947350  92.4642820  64.5733140  32.6855550  93.0079080  63.3407890
  29.9403470  94.2638820  66.3522860  30.2656880  93.4302570  66.0125090
  30.7283800  94.7867340  66.5001190  26.6738260  88.2970300  52.3997920
  26.0492440  88.2930170  53.1251230  26.5868380  87.4301260  52.0033890
  25.5955340  89.2206930  59.3781690  25.8927670  90.1269760  59.2973710
  26.1440900  88.7325710  58.7641260  23.3493660  93.7993170  55.2473340
  23.1234580  93.5830340  56.1519960  22.5686190  94.2321630  54.9019310
  30.5791420  93.8056540  53.8463990  29.9800310  94.5292340  53.6627610
  31.1271030  93.7433320  53.0640440  25.7892870  94.6978750  65.9133610
  25.6936470  93.7573480  65.7634010  26.6324850  94.9193820  65.5181680
  29.1856290  92.4420080  55.8767270  29.5785860  92.7592280  55.0635960
  29.5473140  91.5631960  55.9911790  20.9203410  91.1092420  64.0667390
  20.5266800  91.9567630  64.2740170  20.2321810  90.4718790  64.2576030
  27.4948460  91.1927390  67.1364130  26.8046780  90.9999590  67.7710220
  28.2380760  91.4762030  67.6688430  18.2220460  89.0320880  58.0997470
  17.9333510  89.6023740  58.8122450  18.9666220  88.5525330  58.4628700
  18.4090690  92.9741000  49.3100190  18.3265360  93.9171760  49.4515180
  18.0573750  92.8315910  48.4312540  29.7711430  95.0325830  59.9718050
  29.0392550  95.5412640  60.3208150  29.3735770  94.2155810  59.6706830
  26.2088820  91.7080030  58.3770540  26.2124880  91.2669980  57.5275080
  27.1039940  92.0297360  58.4842360  22.0591200  91.5906520  57.3364750
  21.7191250  92.0681750  58.0931800  21.2968520  91.1371640  56.9765850
  26.2708970  92.7092110  51.3677300  26.3921790  92.6678590  52.3163120
  25.8857480  93.5716260  51.2124030  30.2337340  90.4859510  59.3840990
  30.2510080  90.9368160  60.2282840  29.9852920  89.5865150  59.5974430
  25.2830470  95.0193250  50.7660600  24.7147370  94.5711500  50.1396510
  25.9919470  95.3786030  50.2325750  33.6608090  87.8991690  65.2227370
  33.9853860  87.1681350  65.7485350  33.6964600  87.5805330  64.3208360
  26.5096790  95.7681810  60.1235950  26.8766920  95.2940380  60.8697290
  26.3201850  96.6423380  60.4644290  19.3737280  90.5125500  56.2529420
  19.0884200  90.1481170  57.0908040  19.3116140  89.7805960  55.6392560
  24.2996160  94.8090450  62.4420160  23.9953230  95.6882430  62.6670520
  25.2542620  94.8690240  62.4777600  29.0475870  89.4054760  52.9742790
  28.2340480  88.9067930  52.8988100  28.8537820  90.2453010  52.5579140
  31.7624260  93.7774410  51.2704950  32.6503880  94.0891640  51.0956290
  31.7329350  92.9046660  50.8785530  20.3559890  95.6493190  63.5891520
  19.9974830  96.3147040  64.1764860  20.0614450  94.8176740  63.9604140
  23.5573010  96.1077430  66.4731070  23.2573150  96.2534610  65.5758890
  24.3284250  95.5482720  66.3804460  34.0338530  95.0886250  50.7384810
  33.9502250  95.5200470  49.8881250  34.7532720  95.5484600  51.1711630
  18.8667940  95.6484450  50.2126120  19.7362790  95.9309250  50.4962040
  18.3758260  96.4620320  50.0974930  21.9314530  87.3795310  54.8056920
  21.8029160  87.3713210  55.7541840  21.1076550  87.7178400  54.4547930
  18.9308460  89.1386430  64.2663620  18.2166980  89.3383350  64.8716230
  19.3503500  88.3626000  64.6378420  30.4247240  91.6308740  62.0165070
  30.7928060  90.8103950  62.3444640  29.5645440  91.6910630  62.4320720
  33.7909270  90.5865680  52.8252630  33.1622430  90.6911350  52.1110860
  33.2961190  90.8062460  53.6146510  25.7593300  92.8651630  54.2410510
  25.0509450  93.3337970  54.6824120  26.0437780  92.2073640  54.8755700
  27.3849230  94.2848330  62.2403040  27.8834480  94.7594150  62.9054890
  27.5272180  93.3611850  62.4473070  29.7908730  89.5902290  55.6806300
  29.6676510  89.6088420  54.7315810  30.7393290  89.6381230  55.8004700
  23.9628320  91.1736710  51.6161220  24.8118850  91.6106860  51.5501410
  23.5959590  91.4856970  52.4433280  34.5916090  90.5016290  63.0831430
  34.0889690  91.2421690  63.4225240  35.4072750  90.8900290  62.7668220
  32.8838100  95.7449470  56.5292790  31.9428240  95.7599700  56.7040480
  33.1982170  94.9585430  56.9753090  21.5566500  94.8594140  50.7729640
  21.6370090  93.9121650  50.8847040  22.4486250  95.1901020  50.8790300
  19.0837300  96.6809060  66.0085810  19.5876320  96.1016340  66.5802040
  18.3444720  96.9649290  66.5462180  21.1160380  94.8238650  66.9035880
  21.1565720  94.5252520  67.8121110  21.9705880  95.2246260  66.7443400
  23.0566190  93.4030750  64.8710370  22.5262650  92.9121700  64.2433710
  23.7254260  93.8314950  64.3368300  27.4066410  96.4471810  49.3116490
  27.9272070  95.7320830  48.9457640  28.0534810  97.0857680  49.6117000
  32.4266420  95.2096370  66.6390710  33.0087190  94.4548690  66.5511190
  32.6028190  95.7403810  65.8622190  23.5438490  90.3693120  64.9507660
  23.4495360  89.7513870  64.2258530  22.9635880  91.0959410  64.7237570
  26.3099930  88.9266360  61.9835050  25.8617230  88.9490620  61.1380600
  25.6765130  88.5285380  62.5805350  29.0523380  95.5536870  63.9885330
  29.1719590  94.9578010  64.7280170  29.9117380  95.5906560  63.5686630
  31.3911280  96.1074060  62.5647840  30.8646500  96.6316680  61.9612980
  31.7342620  96.7401450  63.1957570  23.7897670  93.4967430  49.0097550
  23.5886730  92.6334790  49.3710890  23.6189720  93.4100790  48.0719150
  25.8192150  92.0958220  65.2461150  26.4091840  91.7874070  65.9338970
  25.0012390  91.6237970  65.4021050  30.6385580  91.7124030  65.4794170
  29.9501100  91.0505570  65.4144160  31.3591600  91.2662300  65.9242630
  31.2685980  88.3075660  51.5384430  31.5488270  87.4643560  51.8943850
  30.4951710  88.5398770  52.0523180  22.5880470  90.5968050  48.9975430
  22.8906370  90.6035480  48.0894580  23.3275060  90.2465910  49.4943090
  25.8065400  89.5402670  49.9831630  25.4587400  88.8626660  49.4034080
  26.0078170  89.0792180  50.7975020  19.1471040  96.0690320  56.3796000
  18.4919880  95.8001960  55.7355700  19.9848990  95.9594800  55.9297980
  32.0961480  90.8631610  50.6014490  32.5146360  90.6762590  49.7611150
  31.7897540  90.0110660  50.9117420  35.5951210  95.7755750  54.2990290
  35.2194810  95.0083680  53.8671580  34.8654330  96.1578450  54.7865220
  20.1846970  96.4542890  60.9199340  20.5520010  96.3670290  61.7995360
  19.6157790  95.6909440  60.8206200  34.9850830  94.9227270  63.9329810
  34.7536920  94.6940020  63.0327760  35.2455380  95.8426820  63.8874700
  19.7362970  93.3651980  64.8257760  18.8419020  93.3318740  65.1651470
  20.2760520  93.5638770  65.5909010  33.4238900  90.1483700  66.7109510
  34.3009080  90.1567100  67.0943510  33.4359740  89.4114540  66.1001860
  18.3609120  93.2789250  52.3221330  17.4573200  93.5419450  52.1472990
  18.8449740  93.5500420  51.5421290  34.8702170  94.0013240  57.5997530
  35.3939650  93.5075890  56.9687700  35.4561590  94.1363600  58.3445100
  35.0491890  94.0853110  61.1217080  34.0994600  94.0516650  61.2362070
  35.2304900  94.9953220  60.8866850  20.9036330  92.3354790  50.2315710
  21.6128030  91.9138010  49.7462990  20.1876270  92.4030020  49.5999060
  20.5510490  88.3894120  49.2718360  21.2738620  88.9303060  49.5899580
  20.8235010  88.1157540  48.3959900  34.3602140  93.2586590  53.5389940
  34.8561260  93.0257460  54.3238820  34.1618210  92.4198430  53.1227580
  20.2402680  87.6400310  59.1740980  20.8878870  87.0897690  58.7336140
  20.6604520  87.8943460  59.9956790  35.7889300  91.8947540  56.0727620
  35.6788580  91.7403580  57.0109890  36.5496890  91.3668480  55.8303030
  34.1355020  87.8341670  62.5310620  34.7727240  88.4475810  62.8969810
  34.2829910  87.8702330  61.5859850  36.6779570  89.7255460  49.3133760
  37.6028880  89.5936640  49.1052050  36.6555360  89.8048280  50.2670210
  36.7518060  90.4966120  51.9390470  35.9569560  90.4311240  52.4683380
  36.9561340  91.4316760  51.9275820  19.9934680  87.7955980  61.9166300
  19.6449500  88.2519800  62.6824480  19.6622380  86.9013110  61.9988730
  27.5059500  88.9867860  65.4385720  27.4448390  89.5789690  66.1881130
  28.4459880  88.8793820  65.2935980  30.1434060  88.6437920  65.0778010
  30.7574470  88.9617210  64.4159090  30.6883620  88.1586510  65.6973870
  20.6655320  87.3232180  65.1917070  21.2138310  87.1420230  64.4283180
  20.7310630  86.5326290  65.7273380  30.8842100  87.2070060  61.4047300
  30.0101940  87.5405170  61.2020230  30.7752850  86.7343240  62.2299170
  31.7914080  89.4140930  62.7889020  31.4627440  88.5992690  62.4090750
  32.7396380  89.3710740  62.6654710  28.6316920  88.1239900  60.3440210
  27.8488710  88.5985400  60.6236970  28.3379850  87.2194730  60.2353390
  33.1837990  88.8263000  58.3889300  33.6246080  88.7708100  57.5410900
  32.9145580  89.7421010  58.4599480  35.0476560  88.4578240  56.3998120
  34.9864960  87.5139460  56.2529140  35.8268590  88.5658330  56.9451580
  19.9757330  88.4287380  52.8653930  20.7336690  88.5416260  52.2917960
  19.5134500  89.2656580  52.8197360  26.5171140  90.5426650  55.8556240
  25.7045650  90.1683540  55.5152120  27.0212780  89.7871730  56.1577430
  31.0196120  87.2069100  57.0939310  31.6225490  87.7789310  57.5687830
  30.2789110  87.7708540  56.8713210  34.1630720  87.6090660  52.3679590
  34.3581350  88.5074110  52.6347020  33.3760590  87.3777740  52.8612540
  22.3482480  88.9551430  51.4055900  22.8775240  88.1681230  51.2763850
  22.9810800  89.6342620  51.6391430  24.5420320  88.6926570  54.4601290
  23.9123060  87.9913880  54.6271420  24.0025460  89.4530700  54.2434450
  24.6675880  87.9710550  66.8953780  24.3860150  88.4744150  66.1314600
  25.0495580  87.1732300  66.5295910  31.2691340  87.3864130  67.4734250
  31.1556790  87.7058740  68.3685770  32.0861080  87.7876640  67.1771530
  30.1749490  95.4056600  37.8368990  30.0943540  94.4911210  37.5660700
  29.7613910  95.9023670  37.1308700  28.3067530  97.1835620  39.7178260
  27.5309630  96.7036060  40.0076830  28.9580460  96.5041270  39.5434420
  20.7325310  92.4557320  34.3796410  19.8442010  92.7973290  34.2776290
  21.0166500  92.2557640  33.4877240  18.6958320  95.0562970  40.2636110
  19.2674430  94.2885170  40.2639750  18.6959860  95.3551730  39.3542720
  19.9383190  90.4647330  42.0505040  19.7586030  89.5673080  42.3307800
  19.5363270  91.0119200  42.7251990  28.7781690  92.6663190  39.9517350
  29.1546510  91.7935070  39.8391020  28.6801200  93.0021890  39.0607790
  22.9086700  91.0388820  35.4134790  23.0153450  91.9392550  35.7203550
  21.9979060  90.9906790  35.1229440  32.5605810  90.1613630  36.8845690
  33.3815430  89.6710200  36.9271170  32.5939890  90.7511290  37.6377530
  20.5569860  92.9607830  40.6587380  21.2379970  93.2246200  41.2774780
  20.2417910  92.1208700  40.9925390  24.7494430  94.0075190  39.7459970
  25.2572650  94.5056160  40.3864990  25.2807670  93.2310390  39.5699330
  36.8505360  92.1780380  43.4489320  36.1457530  92.5662090  42.9304430
  37.1163280  92.8730670  44.0510250  23.0330530  88.6473750  44.0123390
  23.0348970  89.1646140  43.2069290  22.2034840  88.1703930  43.9893320
  32.7967290  92.1014010  39.6573230  32.0922860  92.3898900  40.2376340
  33.1579450  92.9114120  39.2972790  22.7145860  90.3583710  42.0193840
  23.0562670  91.2025760  41.7247710  21.7761670  90.5067450  42.1359180
  35.8654210  91.5468800  40.0482440  34.9179120  91.5807780  40.1797870
  36.1904200  92.3607750  40.4331800  26.3973750  87.8465980  38.3438430
  26.7048730  87.2912870  37.6273930  25.4674450  87.9810440  38.1611420
  28.7854510  95.9114810  35.0798550  27.8583790  95.8452190  35.3087020
  28.9379330  96.8494940  34.9653790  28.7723590  92.1831810  32.0765710
  27.8327260  92.3445770  32.1618170  29.0906850  92.9017490  31.5301700
  32.2578360  93.6519650  42.9999610  31.8449540  94.4773360  43.2539600
  31.5254310  93.0664690  42.8075970  24.3911150  96.4379550  37.8618280
  23.9868150  95.7256800  37.3664180  24.4774270  96.0932790  38.7506320
  23.1039770  93.2122760  41.6417320  23.6554360  93.3218100  40.8670570
  23.6183280  93.5860360  42.3572550  34.5733640  87.9664730  30.9047590
  34.2606300  88.0591560  31.8046660  35.3346110  88.5445760  30.8545020
  21.0915780  95.3324530  35.3624930  20.9713380  96.0586620  34.7506200
  20.7816670  94.5627440  34.8852840  35.7834930  92.7036230  46.8821730
  35.1679200  93.2115900  46.3537190  35.4631350  91.8034560  46.8247670
  23.5579440  88.6759600  38.7448600  23.1147590  89.4569140  38.4133120
  24.1164430  88.9989490  39.4519540  27.8449250  91.5428120  44.3483920
  27.3828620  91.7511140  45.1603860  27.4427360  90.7287470  44.0454590
  32.8453760  92.7637070  45.4780580  31.9947350  92.4642820  45.7989650
  32.6855550  93.0079080  44.5664400  29.9403470  94.2638820  47.5779370
  30.2656880  93.4302570  47.2381600  30.7283800  94.7867340  47.7257700
  26.6738260  88.2970300  33.6254430  26.0492440  88.2930170  34.3507740
  26.5868380  87.4301260  33.2290400  25.5955340  89.2206930  40.6038200
  25.8927670  90.1269760  40.5230220  26.1440900  88.7325710  39.9897770
  23.3493660  93.7993170  36.4729850  23.1234580  93.5830340  37.3776470
  22.5686190  94.2321630  36.1275820  30.5791420  93.8056540  35.0720500
  29.9800310  94.5292340  34.8884120  31.1271030  93.7433320  34.2896950
  25.7892870  94.6978750  47.1390120  25.6936470  93.7573480  46.9890520
  26.6324850  94.9193820  46.7438190  29.1856290  92.4420080  37.1023780
  29.5785860  92.7592280  36.2892470  29.5473140  91.5631960  37.2168300
  20.9203410  91.1092420  45.2923900  20.5266800  91.9567630  45.4996680
  20.2321810  90.4718790  45.4832540  27.4948460  91.1927390  48.3620640
  26.8046780  90.9999590  48.9966730  28.2380760  91.4762030  48.8944940
  18.2220460  89.0320880  39.3253980  17.9333510  89.6023740  40.0378960
  18.9666220  88.5525330  39.6885210  18.4090690  92.9741000  30.5356700
  18.3265360  93.9171760  30.6771690  18.0573750  92.8315910  29.6569050
  29.7711430  95.0325830  41.1974560  29.0392550  95.5412640  41.5464660
  29.3735770  94.2155810  40.8963340  26.2088820  91.7080030  39.6027050
  26.2124880  91.2669980  38.7531590  27.1039940  92.0297360  39.7098870
  22.0591200  91.5906520  38.5621260  21.7191250  92.0681750  39.3188310
  21.2968520  91.1371640  38.2022360  26.2708970  92.7092110  32.5933810
  26.3921790  92.6678590  33.5419630  25.8857480  93.5716260  32.4380540
  30.2337340  90.4859510  40.6097500  30.2510080  90.9368160  41.4539350
  29.9852920  89.5865150  40.8230940  25.2830470  95.0193250  31.9917110
  24.7147370  94.5711500  31.3653020  25.9919470  95.3786030  31.4582260
  33.6608090  87.8991690  46.4483880  33.9853860  87.1681350  46.9741860
  33.6964600  87.5805330  45.5464870  26.5096790  95.7681810  41.3492460
  26.8766920  95.2940380  42.0953800  26.3201850  96.6423380  41.6900800
  19.3737280  90.5125500  37.4785930  19.0884200  90.1481170  38.3164550
  19.3116140  89.7805960  36.8649070  24.2996160  94.8090450  43.6676670
  23.9953230  95.6882430  43.8927030  25.2542620  94.8690240  43.7034110
  29.0475870  89.4054760  34.1999300  28.2340480  88.9067930  34.1244610
  28.8537820  90.2453010  33.7835650  31.7624260  93.7774410  32.4961460
  32.6503880  94.0891640  32.3212800  31.7329350  92.9046660  32.1042040
  20.3559890  95.6493190  44.8148030  19.9974830  96.3147040  45.4021370
  20.0614450  94.8176740  45.1860650  23.5573010  96.1077430  47.6987580
  23.2573150  96.2534610  46.8015400  24.3284250  95.5482720  47.6060970
  34.0338530  95.0886250  31.9641320  33.9502250  95.5200470  31.1137760
  34.7532720  95.5484600  32.3968140  18.8667940  95.6484450  31.4382630
  19.7362790  95.9309250  31.7218550  18.3758260  96.4620320  31.3231440
  21.9314530  87.3795310  36.0313430  21.8029160  87.3713210  36.9798350
  21.1076550  87.7178400  35.6804440  18.9308460  89.1386430  45.4920130
  18.2166980  89.3383350  46.0972740  19.3503500  88.3626000  45.8634930
  30.4247240  91.6308740  43.2421580  30.7928060  90.8103950  43.5701150
  29.5645440  91.6910630  43.6577230  33.7909270  90.5865680  34.0509140
  33.1622430  90.6911350  33.3367370  33.2961190  90.8062460  34.8403020
  25.7593300  92.8651630  35.4667020  25.0509450  93.3337970  35.9080630
  26.0437780  92.2073640  36.1012210  27.3849230  94.2848330  43.4659550
  27.8834480  94.7594150  44.1311400  27.5272180  93.3611850  43.6729580
  29.7908730  89.5902290  36.9062810  29.6676510  89.6088420  35.9572320
  30.7393290  89.6381230  37.0261210  23.9628320  91.1736710  32.8417730
  24.8118850  91.6106860  32.7757920  23.5959590  91.4856970  33.6689790
  34.5916090  90.5016290  44.3087940  34.0889690  91.2421690  44.6481750
  35.4072750  90.8900290  43.9924730  32.8838100  95.7449470  37.7549300
  31.9428240  95.7599700  37.9296990  33.1982170  94.9585430  38.2009600
  21.5566500  94.8594140  31.9986150  21.6370090  93.9121650  32.1103550
  22.4486250  95.1901020  32.1046810  19.0837300  96.6809060  47.2342320
  19.5876320  96.1016340  47.8058550  18.3444720  96.9649290  47.7718690
  21.1160380  94.8238650  48.1292390  21.1565720  94.5252520  49.0377620
  21.9705880  95.2246260  47.9699910  23.0566190  93.4030750  46.0966880
  22.5262650  92.9121700  45.4690220  23.7254260  93.8314950  45.5624810
  27.4066410  96.4471810  30.5373000  27.9272070  95.7320830  30.1714150
  28.0534810  97.0857680  30.8373510  32.4266420  95.2096370  47.8647220
  33.0087190  94.4548690  47.7767700  32.6028190  95.7403810  47.0878700
  23.5438490  90.3693120  46.1764170  23.4495360  89.7513870  45.4515040
  22.9635880  91.0959410  45.9494080  26.3099930  88.9266360  43.2091560
  25.8617230  88.9490620  42.3637110  25.6765130  88.5285380  43.8061860
  29.0523380  95.5536870  45.2141840  29.1719590  94.9578010  45.9536680
  29.9117380  95.5906560  44.7943140  31.3911280  96.1074060  43.7904350
  30.8646500  96.6316680  43.1869490  31.7342620  96.7401450  44.4214080
  23.7897670  93.4967430  30.2354060  23.5886730  92.6334790  30.5967400
  23.6189720  93.4100790  29.2975660  25.8192150  92.0958220  46.4717660
  26.4091840  91.7874070  47.1595480  25.0012390  91.6237970  46.6277560
  30.6385580  91.7124030  46.7050680  29.9501100  91.0505570  46.6400670
  31.3591600  91.2662300  47.1499140  31.2685980  88.3075660  32.7640940
  31.5488270  87.4643560  33.1200360  30.4951710  88.5398770  33.2779690
  22.5880470  90.5968050  30.2231940  22.8906370  90.6035480  29.3151090
  23.3275060  90.2465910  30.7199600  25.8065400  89.5402670  31.2088140
  25.4587400  88.8626660  30.6290590  26.0078170  89.0792180  32.0231530
  19.1471040  96.0690320  37.6052510  18.4919880  95.8001960  36.9612210
  19.9848990  95.9594800  37.1554490  32.0961480  90.8631610  31.8271000
  32.5146360  90.6762590  30.9867660  31.7897540  90.0110660  32.1373930
  35.5951210  95.7755750  35.5246800  35.2194810  95.0083680  35.0928090
  34.8654330  96.1578450  36.0121730  20.1846970  96.4542890  42.1455850
  20.5520010  96.3670290  43.0251870  19.6157790  95.6909440  42.0462710
  34.9850830  94.9227270  45.1586320  34.7536920  94.6940020  44.2584270
  35.2455380  95.8426820  45.1131210  19.7362970  93.3651980  46.0514270
  18.8419020  93.3318740  46.3907980  20.2760520  93.5638770  46.8165520
  33.4238900  90.1483700  47.9366020  34.3009080  90.1567100  48.3200020
  33.4359740  89.4114540  47.3258370  18.3609120  93.2789250  33.5477840
  17.4573200  93.5419450  33.3729500  18.8449740  93.5500420  32.7677800
  34.8702170  94.0013240  38.8254040  35.3939650  93.5075890  38.1944210
  35.4561590  94.1363600  39.5701610  35.0491890  94.0853110  42.3473590
  34.0994600  94.0516650  42.4618580  35.2304900  94.9953220  42.1123360
  20.9036330  92.3354790  31.4572220  21.6128030  91.9138010  30.9719500
  20.1876270  92.4030020  30.8255570  20.5510490  88.3894120  30.4974870
  21.2738620  88.9303060  30.8156090  20.8235010  88.1157540  29.6216410
  34.3602140  93.2586590  34.7646450  34.8561260  93.0257460  35.5495330
  34.1618210  92.4198430  34.3484090  20.2402680  87.6400310  40.3997490
  20.8878870  87.0897690  39.9592650  20.6604520  87.8943460  41.2213300
  35.7889300  91.8947540  37.2984130  35.6788580  91.7403580  38.2366400
  36.5496890  91.3668480  37.0559540  34.1355020  87.8341670  43.7567130
  34.7727240  88.4475810  44.1226320  34.2829910  87.8702330  42.8116360
  36.6779570  89.7255460  30.5390270  37.6028880  89.5936640  30.3308560
  36.6555360  89.8048280  31.4926720  36.7518060  90.4966120  33.1646980
  35.9569560  90.4311240  33.6939890  36.9561340  91.4316760  33.1532330
  19.9934680  87.7955980  43.1422810  19.6449500  88.2519800  43.9080990
  19.6622380  86.9013110  43.2245240  27.5059500  88.9867860  46.6642230
  27.4448390  89.5789690  47.4137640  28.4459880  88.8793820  46.5192490
  30.1434060  88.6437920  46.3034520  30.7574470  88.9617210  45.6415600
  30.6883620  88.1586510  46.9230380  20.6655320  87.3232180  46.4173580
  21.2138310  87.1420230  45.6539690  20.7310630  86.5326290  46.9529890
  30.8842100  87.2070060  42.6303810  30.0101940  87.5405170  42.4276740
  30.7752850  86.7343240  43.4555680  31.7914080  89.4140930  44.0145530
  31.4627440  88.5992690  43.6347260  32.7396380  89.3710740  43.8911220
  28.6316920  88.1239900  41.5696720  27.8488710  88.5985400  41.8493480
  28.3379850  87.2194730  41.4609900  33.1837990  88.8263000  39.6145810
  33.6246080  88.7708100  38.7667410  32.9145580  89.7421010  39.6855990
  35.0476560  88.4578240  37.6254630  34.9864960  87.5139460  37.4785650
  35.8268590  88.5658330  38.1708090  19.9757330  88.4287380  34.0910440
  20.7336690  88.5416260  33.5174470  19.5134500  89.2656580  34.0453870
  26.5171140  90.5426650  37.0812750  25.7045650  90.1683540  36.7408630
  27.0212780  89.7871730  37.3833940  31.0196120  87.2069100  38.3195820
  31.6225490  87.7789310  38.7944340  30.2789110  87.7708540  38.0969720
  34.1630720  87.6090660  33.5936100  34.3581350  88.5074110  33.8603530
  33.3760590  87.3777740  34.0869050  22.3482480  88.9551430  32.6312410
  22.8775240  88.1681230  32.5020360  22.9810800  89.6342620  32.8647940
  24.5420320  88.6926570  35.6857800  23.9123060  87.9913880  35.8527930
  24.0025460  89.4530700  35.4690960  24.6675880  87.9710550  48.1210290
  24.3860150  88.4744150  47.3571110  25.0495580  87.1732300  47.7552420
  31.2691340  87.3864130  48.6990760  31.1556790  87.7058740  49.5942280
  32.0861080  87.7876640  48.4028040  30.1749490  95.4056600  19.0625500
  30.0943540  94.4911210  18.7917210  29.7613910  95.9023670  18.3565210
  28.3067530  97.1835620  20.9434770  27.5309630  96.7036060  21.2333340
  28.9580460  96.5041270  20.7690930  20.7325310  92.4557320  15.6052920
  19.8442010  92.7973290  15.5032800  21.0166500  92.2557640  14.7133750
  18.6958320  95.0562970  21.4892620  19.2674430  94.2885170  21.4896260
  18.6959860  95.3551730  20.5799230  19.9383190  90.4647330  23.2761550
  19.7586030  89.5673080  23.5564310  19.5363270  91.0119200  23.9508500
  28.7781690  92.6663190  21.1773860  29.1546510  91.7935070  21.0647530
  28.6801200  93.0021890  20.2864300  22.9086700  91.0388820  16.6391300
  23.0153450  91.9392550  16.9460060  21.9979060  90.9906790  16.3485950
  32.5605810  90.1613630  18.1102200  33.3815430  89.6710200  18.1527680
  32.5939890  90.7511290  18.8634040  20.5569860  92.9607830  21.8843890
  21.2379970  93.2246200  22.5031290  20.2417910  92.1208700  22.2181900
  24.7494430  94.0075190  20.9716480  25.2572650  94.5056160  21.6121500
  25.2807670  93.2310390  20.7955840  36.8505360  92.1780380  24.6745830
  36.1457530  92.5662090  24.1560940  37.1163280  92.8730670  25.2766760
  23.0330530  88.6473750  25.2379900  23.0348970  89.1646140  24.4325800
  22.2034840  88.1703930  25.2149830  32.7967290  92.1014010  20.8829740
  32.0922860  92.3898900  21.4632850  33.1579450  92.9114120  20.5229300
  22.7145860  90.3583710  23.2450350  23.0562670  91.2025760  22.9504220
  21.7761670  90.5067450  23.3615690  35.8654210  91.5468800  21.2738950
  34.9179120  91.5807780  21.4054380  36.1904200  92.3607750  21.6588310
  26.3973750  87.8465980  19.5694940  26.7048730  87.2912870  18.8530440
  25.4674450  87.9810440  19.3867930  28.7854510  95.9114810  16.3055060
  27.8583790  95.8452190  16.5343530  28.9379330  96.8494940  16.1910300
  28.7723590  92.1831810  13.3022220  27.8327260  92.3445770  13.3874680
  29.0906850  92.9017490  12.7558210  32.2578360  93.6519650  24.2256120
  31.8449540  94.4773360  24.4796110  31.5254310  93.0664690  24.0332480
  24.3911150  96.4379550  19.0874790  23.9868150  95.7256800  18.5920690
  24.4774270  96.0932790  19.9762830  23.1039770  93.2122760  22.8673830
  23.6554360  93.3218100  22.0927080  23.6183280  93.5860360  23.5829060
  34.5733640  87.9664730  12.1304100  34.2606300  88.0591560  13.0303170
  35.3346110  88.5445760  12.0801530  21.0915780  95.3324530  16.5881440
  20.9713380  96.0586620  15.9762710  20.7816670  94.5627440  16.1109350
  35.7834930  92.7036230  28.1078240  35.1679200  93.2115900  27.5793700
  35.4631350  91.8034560  28.0504180  23.5579440  88.6759600  19.9705110
  23.1147590  89.4569140  19.6389630  24.1164430  88.9989490  20.6776050
  27.8449250  91.5428120  25.5740430  27.3828620  91.7511140  26.3860370
  27.4427360  90.7287470  25.2711100  32.8453760  92.7637070  26.7037090
  31.9947350  92.4642820  27.0246160  32.6855550  93.0079080  25.7920910
  29.9403470  94.2638820  28.8035880  30.2656880  93.4302570  28.4638110
  30.7283800  94.7867340  28.9514210  26.6738260  88.2970300  14.8510940
  26.0492440  88.2930170  15.5764250  26.5868380  87.4301260  14.4546910
  25.5955340  89.2206930  21.8294710  25.8927670  90.1269760  21.7486730
  26.1440900  88.7325710  21.2154280  23.3493660  93.7993170  17.6986360
  23.1234580  93.5830340  18.6032980  22.5686190  94.2321630  17.3532330
  30.5791420  93.8056540  16.2977010  29.9800310  94.5292340  16.1140630
  31.1271030  93.7433320  15.5153460  25.7892870  94.6978750  28.3646630
  25.6936470  93.7573480  28.2147030  26.6324850  94.9193820  27.9694700
  29.1856290  92.4420080  18.3280290  29.5785860  92.7592280  17.5148980
  29.5473140  91.5631960  18.4424810  20.9203410  91.1092420  26.5180410
  20.5266800  91.9567630  26.7253190  20.2321810  90.4718790  26.7089050
  27.4948460  91.1927390  29.5877150  26.8046780  90.9999590  30.2223240
  28.2380760  91.4762030  30.1201450  18.2220460  89.0320880  20.5510490
  17.9333510  89.6023740  21.2635470  18.9666220  88.5525330  20.9141720
  18.4090690  92.9741000  11.7613210  18.3265360  93.9171760  11.9028200
  18.0573750  92.8315910  10.8825560  29.7711430  95.0325830  22.4231070
  29.0392550  95.5412640  22.7721170  29.3735770  94.2155810  22.1219850
  26.2088820  91.7080030  20.8283560  26.2124880  91.2669980  19.9788100
  27.1039940  92.0297360  20.9355380  22.0591200  91.5906520  19.7877770
  21.7191250  92.0681750  20.5444820  21.2968520  91.1371640  19.4278870
  26.2708970  92.7092110  13.8190320  26.3921790  92.6678590  14.7676140
  25.8857480  93.5716260  13.6637050  30.2337340  90.4859510  21.8354010
  30.2510080  90.9368160  22.6795860  29.9852920  89.5865150  22.0487450
  25.2830470  95.0193250  13.2173620  24.7147370  94.5711500  12.5909530
  25.9919470  95.3786030  12.6838770  33.6608090  87.8991690  27.6740390
  33.9853860  87.1681350  28.1998370  33.6964600  87.5805330  26.7721380
  26.5096790  95.7681810  22.5748970  26.8766920  95.2940380  23.3210310
  26.3201850  96.6423380  22.9157310  19.3737280  90.5125500  18.7042440
  19.0884200  90.1481170  19.5421060  19.3116140  89.7805960  18.0905580
  24.2996160  94.8090450  24.8933180  23.9953230  95.6882430  25.1183540
  25.2542620  94.8690240  24.9290620  29.0475870  89.4054760  15.4255810
  28.2340480  88.9067930  15.3501120  28.8537820  90.2453010  15.0092160
  31.7624260  93.7774410  13.7217970  32.6503880  94.0891640  13.5469310
  31.7329350  92.9046660  13.3298550  20.3559890  95.6493190  26.0404540
  19.9974830  96.3147040  26.6277880  20.0614450  94.8176740  26.4117160
  23.5573010  96.1077430  28.9244090  23.2573150  96.2534610  28.0271910
  24.3284250  95.5482720  28.8317480  34.0338530  95.0886250  13.1897830
  33.9502250  95.5200470  12.3394270  34.7532720  95.5484600  13.6224650
  18.8667940  95.6484450  12.6639140  19.7362790  95.9309250  12.9475060
  18.3758260  96.4620320  12.5487950  21.9314530  87.3795310  17.2569940
  21.8029160  87.3713210  18.2054860  21.1076550  87.7178400  16.9060950
  18.9308460  89.1386430  26.7176640  18.2166980  89.3383350  27.3229250
  19.3503500  88.3626000  27.0891440  30.4247240  91.6308740  24.4678090
  30.7928060  90.8103950  24.7957660  29.5645440  91.6910630  24.8833740
  33.7909270  90.5865680  15.2765650  33.1622430  90.6911350  14.5623880
  33.2961190  90.8062460  16.0659530  25.7593300  92.8651630  16.6923530
  25.0509450  93.3337970  17.1337140  26.0437780  92.2073640  17.3268720
  27.3849230  94.2848330  24.6916060  27.8834480  94.7594150  25.3567910
  27.5272180  93.3611850  24.8986090  29.7908730  89.5902290  18.1319320
  29.6676510  89.6088420  17.1828830  30.7393290  89.6381230  18.2517720
  23.9628320  91.1736710  14.0674240  24.8118850  91.6106860  14.0014430
  23.5959590  91.4856970  14.8946300  34.5916090  90.5016290  25.5344450
  34.0889690  91.2421690  25.8738260  35.4072750  90.8900290  25.2181240
  32.8838100  95.7449470  18.9805810  31.9428240  95.7599700  19.1553500
  33.1982170  94.9585430  19.4266110  21.5566500  94.8594140  13.2242660
  21.6370090  93.9121650  13.3360060  22.4486250  95.1901020  13.3303320
  19.0837300  96.6809060  28.4598830  19.5876320  96.1016340  29.0315060
  18.3444720  96.9649290  28.9975200  21.1160380  94.8238650  29.3548900
  21.1565720  94.5252520  30.2634130  21.9705880  95.2246260  29.1956420
  23.0566190  93.4030750  27.3223390  22.5262650  92.9121700  26.6946730
  23.7254260  93.8314950  26.7881320  27.4066410  96.4471810  11.7629510
  27.9272070  95.7320830  11.3970660  28.0534810  97.0857680  12.0630020
  32.4266420  95.2096370  29.0903730  33.0087190  94.4548690  29.0024210
  32.6028190  95.7403810  28.3135210  23.5438490  90.3693120  27.4020680
  23.4495360  89.7513870  26.6771550  22.9635880  91.0959410  27.1750590
  26.3099930  88.9266360  24.4348070  25.8617230  88.9490620  23.5893620
  25.6765130  88.5285380  25.0318370  29.0523380  95.5536870  26.4398350
  29.1719590  94.9578010  27.1793190  29.9117380  95.5906560  26.0199650
  31.3911280  96.1074060  25.0160860  30.8646500  96.6316680  24.4126000
  31.7342620  96.7401450  25.6470590  23.7897670  93.4967430  11.4610570
  23.5886730  92.6334790  11.8223910  23.6189720  93.4100790  10.5232170
  25.8192150  92.0958220  27.6974170  26.4091840  91.7874070  28.3851990
  25.0012390  91.6237970  27.8534070  30.6385580  91.7124030  27.9307190
  29.9501100  91.0505570  27.8657180  31.3591600  91.2662300  28.3755650
  31.2685980  88.3075660  13.9897450  31.5488270  87.4643560  14.3456870
  30.4951710  88.5398770  14.5036200  22.5880470  90.5968050  11.4488450
  22.8906370  90.6035480  10.5407600  23.3275060  90.2465910  11.9456110
  25.8065400  89.5402670  12.4344650  25.4587400  88.8626660  11.8547100
  26.0078170  89.0792180  13.2488040  19.1471040  96.0690320  18.8309020
  18.4919880  95.8001960  18.1868720  19.9848990  95.9594800  18.3811000
  32.0961480  90.8631610  13.0527510  32.5146360  90.6762590  12.2124170
  31.7897540  90.0110660  13.3630440  35.5951210  95.7755750  16.7503310
  35.2194810  95.0083680  16.3184600  34.8654330  96.1578450  17.2378240
  20.1846970  96.4542890  23.3712360  20.5520010  96.3670290  24.2508380
  19.6157790  95.6909440  23.2719220  34.9850830  94.9227270  26.3842830
  34.7536920  94.6940020  25.4840780  35.2455380  95.8426820  26.3387720
  19.7362970  93.3651980  27.2770780  18.8419020  93.3318740  27.6164490
  20.2760520  93.5638770  28.0422030  33.4238900  90.1483700  29.1622530
  34.3009080  90.1567100  29.5456530  33.4359740  89.4114540  28.5514880
  18.3609120  93.2789250  14.7734350  17.4573200  93.5419450  14.5986010
  18.8449740  93.5500420  13.9934310  34.8702170  94.0013240  20.0510550
  35.3939650  93.5075890  19.4200720  35.4561590  94.1363600  20.7958120
  35.0491890  94.0853110  23.5730100  34.0994600  94.0516650  23.6875090
  35.2304900  94.9953220  23.3379870  20.9036330  92.3354790  12.6828730
  21.6128030  91.9138010  12.1976010  20.1876270  92.4030020  12.0512080
  20.5510490  88.3894120  11.7231380  21.2738620  88.9303060  12.0412600
  20.8235010  88.1157540  10.8472920  34.3602140  93.2586590  15.9902960
  34.8561260  93.0257460  16.7751840  34.1618210  92.4198430  15.5740600
  20.2402680  87.6400310  21.6254000  20.8878870  87.0897690  21.1849160
  20.6604520  87.8943460  22.4469810  35.7889300  91.8947540  18.5240640
  35.6788580  91.7403580  19.4622910  36.5496890  91.3668480  18.2816050
  34.1355020  87.8341670  24.9823640  34.7727240  88.4475810  25.3482830
  34.2829910  87.8702330  24.0372870  36.6779570  89.7255460  11.7646780
  37.6028880  89.5936640  11.5565070  36.6555360  89.8048280  12.7183230
  36.7518060  90.4966120  14.3903490  35.9569560  90.4311240  14.9196400
  36.9561340  91.4316760  14.3788840  19.9934680  87.7955980  24.3679320
  19.6449500  88.2519800  25.1337500  19.6622380  86.9013110  24.4501750
  27.5059500  88.9867860  27.8898740  27.4448390  89.5789690  28.6394150
  28.4459880  88.8793820  27.7449000  30.1434060  88.6437920  27.5291030
  30.7574470  88.9617210  26.8672110  30.6883620  88.1586510  28.1486890
  20.6655320  87.3232180  27.6430090  21.2138310  87.1420230  26.8796200
  20.7310630  86.5326290  28.1786400  30.8842100  87.2070060  23.8560320
  30.0101940  87.5405170  23.6533250  30.7752850  86.7343240  24.6812190
  31.7914080  89.4140930  25.2402040  31.4627440  88.5992690  24.8603770
  32.7396380  89.3710740  25.1167730  28.6316920  88.1239900  22.7953230
  27.8488710  88.5985400  23.0749990  28.3379850  87.2194730  22.6866410
  33.1837990  88.8263000  20.8402320  33.6246080  88.7708100  19.9923920
  32.9145580  89.7421010  20.9112500  35.0476560  88.4578240  18.8511140
  34.9864960  87.5139460  18.7042160  35.8268590  88.5658330  19.3964600
  19.9757330  88.4287380  15.3166950  20.7336690  88.5416260  14.7430980
  19.5134500  89.2656580  15.2710380  26.5171140  90.5426650  18.3069260
  25.7045650  90.1683540  17.9665140  27.0212780  89.7871730  18.6090450
  31.0196120  87.2069100  19.5452330  31.6225490  87.7789310  20.0200850
  30.2789110  87.7708540  19.3226230  34.1630720  87.6090660  14.8192610
  34.3581350  88.5074110  15.0860040  33.3760590  87.3777740  15.3125560
  22.3482480  88.9551430  13.8568920  22.8775240  88.1681230  13.7276870
  22.9810800  89.6342620  14.0904450  24.5420320  88.6926570  16.9114310
  23.9123060  87.9913880  17.0784440  24.0025460  89.4530700  16.6947470
  24.6675880  87.9710550  29.3466800  24.3860150  88.4744150  28.5827620
  25.0495580  87.1732300  28.9808930  31.2691340  87.3864130  29.9247270
  31.1556790  87.7058740  30.8198790  32.0861080  87.7876640  29.6284550
  28.3067530  97.1835620   2.1691280  27.5309630  96.7036060   2.4589850
  28.9580460  96.5041270   1.9947440  18.6958320  95.0562970   2.7149130
  19.2674430  94.2885170   2.7152770  18.6959860  95.3551730   1.8055740
  19.9383190  90.4647330   4.5018060  19.7586030  89.5673080   4.7820820
  19.5363270  91.0119200   5.1765010  20.5569860  92.9607830   3.1100400
  21.2379970  93.2246200   3.7287800  20.2417910  92.1208700   3.4438410
  24.7494430  94.0075190   2.1972990  25.2572650  94.5056160   2.8378010
  25.2807670  93.2310390   2.0212350  36.8505360  92.1780380   5.9002340
  36.1457530  92.5662090   5.3817450  37.1163280  92.8730670   6.5023270
  23.0330530  88.6473750   6.4636410  23.0348970  89.1646140   5.6582310
  22.2034840  88.1703930   6.4406340  32.7967290  92.1014010   2.1086250
  32.0922860  92.3898900   2.6889360  33.1579450  92.9114120   1.7485810
  22.7145860  90.3583710   4.4706860  23.0562670  91.2025760   4.1760730
  21.7761670  90.5067450   4.5872200  35.8654210  91.5468800   2.4995460
  34.9179120  91.5807780   2.6310890  36.1904200  92.3607750   2.8844820
  32.2578360  93.6519650   5.4512630  31.8449540  94.4773360   5.7052620
  31.5254310  93.0664690   5.2588990  23.1039770  93.2122760   4.0930340
  23.6554360  93.3218100   3.3183590  23.6183280  93.5860360   4.8085570
  35.7834930  92.7036230   9.3334750  35.1679200  93.2115900   8.8050210
  35.4631350  91.8034560   9.2760690  27.8449250  91.5428120   6.7996940
  27.3828620  91.7511140   7.6116880  27.4427360  90.7287470   6.4967610
  32.8453760  92.7637070   7.9293600  31.9947350  92.4642820   8.2502670
  32.6855550  93.0079080   7.0177420  29.9403470  94.2638820  10.0292390
  30.2656880  93.4302570   9.6894620  30.7283800  94.7867340  10.1770720
  25.5955340  89.2206930   3.0551220  25.8927670  90.1269760   2.9743240
  26.1440900  88.7325710   2.4410790  25.7892870  94.6978750   9.5903140
  25.6936470  93.7573480   9.4403540  26.6324850  94.9193820   9.1951210
  20.9203410  91.1092420   7.7436920  20.5266800  91.9567630   7.9509700
  20.2321810  90.4718790   7.9345560  27.4948460  91.1927390  10.8133660
  26.8046780  90.9999590  11.4479750  28.2380760  91.4762030  11.3457960
  18.2220460  89.0320880   1.7767000  17.9333510  89.6023740   2.4891980
  18.9666220  88.5525330   2.1398230  29.7711430  95.0325830   3.6487580
  29.0392550  95.5412640   3.9977680  29.3735770  94.2155810   3.3476360
  30.2337340  90.4859510   3.0610520  30.2510080  90.9368160   3.9052370
  29.9852920  89.5865150   3.2743960  33.6608090  87.8991690   8.8996900
  33.9853860  87.1681350   9.4254880  33.6964600  87.5805330   7.9977890
  26.5096790  95.7681810   3.8005480  26.8766920  95.2940380   4.5466820
  26.3201850  96.6423380   4.1413820  24.2996160  94.8090450   6.1189690
  23.9953230  95.6882430   6.3440050  25.2542620  94.8690240   6.1547130
  20.3559890  95.6493190   7.2661050  19.9974830  96.3147040   7.8534390
  20.0614450  94.8176740   7.6373670  23.5573010  96.1077430  10.1500600
  23.2573150  96.2534610   9.2528420  24.3284250  95.5482720  10.0573990
  18.9308460  89.1386430   7.9433150  18.2166980  89.3383350   8.5485760
  19.3503500  88.3626000   8.3147950  30.4247240  91.6308740   5.6934600
  30.7928060  90.8103950   6.0214170  29.5645440  91.6910630   6.1090250
  27.3849230  94.2848330   5.9172570  27.8834480  94.7594150   6.5824420
  27.5272180  93.3611850   6.1242600  34.5916090  90.5016290   6.7600960
  34.0889690  91.2421690   7.0994770  35.4072750  90.8900290   6.4437750
  19.0837300  96.6809060   9.6855340  19.5876320  96.1016340  10.2571570
  18.3444720  96.9649290  10.2231710  21.1160380  94.8238650  10.5805410
  21.1565720  94.5252520  11.4890640  21.9705880  95.2246260  10.4212930
  23.0566190  93.4030750   8.5479900  22.5262650  92.9121700   7.9203240
  23.7254260  93.8314950   8.0137830  32.4266420  95.2096370  10.3160240
  33.0087190  94.4548690  10.2280720  32.6028190  95.7403810   9.5391720
  23.5438490  90.3693120   8.6277190  23.4495360  89.7513870   7.9028060
  22.9635880  91.0959410   8.4007100  26.3099930  88.9266360   5.6604580
  25.8617230  88.9490620   4.8150130  25.6765130  88.5285380   6.2574880
  29.0523380  95.5536870   7.6654860  29.1719590  94.9578010   8.4049700
  29.9117380  95.5906560   7.2456160  31.3911280  96.1074060   6.2417370
  30.8646500  96.6316680   5.6382510  31.7342620  96.7401450   6.8727100
  25.8192150  92.0958220   8.9230680  26.4091840  91.7874070   9.6108500
  25.0012390  91.6237970   9.0790580  30.6385580  91.7124030   9.1563700
  29.9501100  91.0505570   9.0913690  31.3591600  91.2662300   9.6012160
  20.1846970  96.4542890   4.5968870  20.5520010  96.3670290   5.4764890
  19.6157790  95.6909440   4.4975730  34.9850830  94.9227270   7.6099340
  34.7536920  94.6940020   6.7097290  35.2455380  95.8426820   7.5644230
  19.7362970  93.3651980   8.5027290  18.8419020  93.3318740   8.8421000
  20.2760520  93.5638770   9.2678540  33.4238900  90.1483700  10.3879040
  34.3009080  90.1567100  10.7713040  33.4359740  89.4114540   9.7771390
  35.0491890  94.0853110   4.7986610  34.0994600  94.0516650   4.9131600
  35.2304900  94.9953220   4.5636380  20.2402680  87.6400310   2.8510510
  20.8878870  87.0897690   2.4105670  20.6604520  87.8943460   3.6726320
  34.1355020  87.8341670   6.2080150  34.7727240  88.4475810   6.5739340
  34.2829910  87.8702330   5.2629380  19.9934680  87.7955980   5.5935830
  19.6449500  88.2519800   6.3594010  19.6622380  86.9013110   5.6758260
  27.5059500  88.9867860   9.1155250  27.4448390  89.5789690   9.8650660
  28.4459880  88.8793820   8.9705510  30.1434060  88.6437920   8.7547540
  30.7574470  88.9617210   8.0928620  30.6883620  88.1586510   9.3743400
  20.6655320  87.3232180   8.8686600  21.2138310  87.1420230   8.1052710
  20.7310630  86.5326290   9.4042910  30.8842100  87.2070060   5.0816830
  30.0101940  87.5405170   4.8789760  30.7752850  86.7343240   5.9068700
  31.7914080  89.4140930   6.4658550  31.4627440  88.5992690   6.0860280
  32.7396380  89.3710740   6.3424240  28.6316920  88.1239900   4.0209740
  27.8488710  88.5985400   4.3006500  28.3379850  87.2194730   3.9122920
  24.6675880  87.9710550  10.5723310  24.3860150  88.4744150   9.8084130
  25.0495580  87.1732300  10.2065440  31.2691340  87.3864130  11.1503780
  31.1556790  87.7058740  12.0455300  32.0861080  87.7876640  10.8541060
  30.1749490  76.6313110  94.1599460  30.0943540  75.7167720  93.8891170
  29.7613910  77.1280180  93.4539170  32.3274960  82.8152320  94.8207860
  31.8656490  82.0439560  95.1495030  33.1400510  82.8418390  95.3260310
  20.7325310  73.6813830  90.7026880  19.8442010  74.0229800  90.6006760
  21.0166500  73.4814150  89.8107710  28.5538270  85.1010330  94.4411850
  27.9349710  85.5567830  93.8706290  29.4090050  85.2561790  94.0401550
  22.9086700  72.2645330  91.7365260  23.0153450  73.1649060  92.0434020
  21.9979060  72.2163300  91.4459910  32.5605810  71.3870140  93.2076160
  33.3815430  70.8966710  93.2501640  32.5939890  71.9767800  93.9608000
  29.4201620  79.9849570  91.8343760  28.8018890  80.4499020  91.2706480
  29.9324870  80.6777050  92.2513270  18.7884820  80.6706100  89.2083390
  18.4112800  81.1593200  88.4768290  19.0457890  81.3431380  89.8389920
  26.3973750  69.0722490  94.6668900  26.7048730  68.5169380  93.9504400
  25.4674450  69.2066950  94.4841890  33.2434230  81.5106000  92.0466530
  33.1330560  80.5680330  92.1715950  33.2402480  81.8721640  92.9329290
  28.7854510  77.1371320  91.4029020  27.8583790  77.0708700  91.6317490
  28.9379330  78.0751450  91.2884260  28.7723590  73.4088320  88.3996180
  27.8327260  73.5702280  88.4848640  29.0906850  74.1274000  87.8532170
  32.8151800  78.6991620  91.9064270  32.1964220  78.3611170  91.2590570
  32.7976250  78.0551380  92.6143460  24.3911150  77.6636060  94.1848750
  23.9868150  76.9513310  93.6894650  24.4774270  77.3189300  95.0736790
  30.9916500  77.9378430  88.9137020  31.4309780  77.1000860  88.7674840
  31.7044920  78.5707830  89.0001160  29.1011880  82.8774500  92.8818260
  29.5407790  83.6198830  92.4673650  29.0398770  83.1201070  93.8057220
  34.5733640  69.1921240  87.2278060  34.2606300  69.2848070  88.1277130
  35.3346110  69.7702270  87.1775490  21.0915780  76.5581040  91.6855400
  20.9713380  77.2843130  91.0736670  20.7816670  75.7883950  91.2083310
  19.9748780  81.4296370  93.9030220  19.5676860  81.5710960  93.0483820
  20.8661790  81.1456530  93.7001430  31.7682060  85.8643620  90.2381270
  31.6083200  85.5746560  91.1363100  31.6028770  85.0883750  89.7026500
  24.2470440  85.6442150  92.0152890  24.0712920  84.7277690  91.8020690
  23.3926180  86.0029440  92.2550690  31.4708190  83.3731180  88.7979270
  30.7773350  83.3708470  88.1381550  32.2131050  82.9490500  88.3673440
  31.0358120  84.9993890  92.8727760  31.4915070  84.2183270  93.1866380
  31.3750640  85.7100710  93.4168940  23.5579440  69.9016110  95.0679070
  23.1147590  70.6825650  94.7363590  24.1164430  70.2246000  95.7750010
  26.6738260  69.5226810  89.9484900  26.0492440  69.5186680  90.6738210
  26.5868380  68.6557770  89.5520870  23.3493660  75.0249680  92.7960320
  23.1234580  74.8086850  93.7006940  22.5686190  75.4578140  92.4506290
  30.5791420  75.0313050  91.3950970  29.9800310  75.7548850  91.2114590
  31.1271030  74.9689830  90.6127420  29.1856290  73.6676590  93.4254250
  29.5785860  73.9848790  92.6122940  29.5473140  72.7888470  93.5398770
  18.4090690  74.1997510  86.8587170  18.3265360  75.1428270  87.0002160
  18.0573750  74.0572420  85.9799520  26.2088820  72.9336540  95.9257520
  26.2124880  72.4926490  95.0762060  27.1039940  73.2553870  96.0329340
  22.0591200  72.8163030  94.8851730  21.7191250  73.2938260  95.6418780
  21.2968520  72.3628150  94.5252830  26.2708970  73.9348620  88.9164280
  26.3921790  73.8935100  89.8650100  25.8857480  74.7972770  88.7611010
  25.2830470  76.2449760  88.3147580  24.7147370  75.7968010  87.6883490
  25.9919470  76.6042540  87.7812730  19.3737280  71.7382010  93.8016400
  19.0884200  71.3737680  94.6395020  19.3116140  71.0062470  93.1879540
  22.8277950  80.2407950  90.5873990  22.0540210  79.7005570  90.4272710
  23.5572580  79.7214560  90.2491750  29.0475870  70.6311270  90.5229770
  28.2340480  70.1324440  90.4475080  28.8537820  71.4709520  90.1066120
  31.7624260  75.0030920  88.8191930  32.6503880  75.3148150  88.6443270
  31.7329350  74.1303170  88.4272510  22.8715350  79.9088330  94.2252800
  23.3894020  79.1056590  94.1709690  22.4199370  79.8467470  95.0669630
  27.7584850  81.1754610  89.4980100  28.1000550  81.9196840  89.0023420
  26.9297560  81.4885730  89.8604930  34.0338530  76.3142760  88.2871790
  33.9502250  76.7456980  87.4368230  34.7532720  76.7741110  88.7198610
  35.0625780  83.1685020  91.0153920  34.4201940  82.5140640  91.2897640
  34.6756440  83.5740110  90.2394590  30.6412260  80.4970450  94.8625610
  30.9936080  79.8998580  94.2026980  29.7574590  80.1714680  95.0333860
  26.7275540  81.2568140  92.2696020  27.4146670  81.8037350  92.6503610
  25.9407960  81.8008870  92.3045630  18.8667940  76.8740960  87.7613100
  19.7362790  77.1565760  88.0449020  18.3758260  77.6876830  87.6461910
  26.0302750  78.2614170  91.8821380  26.4865530  79.0719420  92.1081570
  25.6790960  77.9437310  92.7139870  21.9314530  68.6051820  92.3543900
  21.8029160  68.5969720  93.3028820  21.1076550  68.9434910  92.0034910
  33.4523160  82.0601480  87.5530270  33.2260740  81.3431920  88.1454910
  33.0619360  81.8113920  86.7152020  19.2339190  86.0868340  88.3274730
  19.5936830  86.6857680  87.6732000  19.0931530  86.6328230  89.1009760
  33.0339410  79.9773420  89.2144430  32.7461110  80.4386110  90.0022310
  33.8291580  79.5171190  89.4828650  25.2507810  83.4699540  89.1448400
  25.2417910  84.2029230  88.5292910  24.3306170  83.2231120  89.2375360
  20.8514450  78.6914430  89.8895160  20.2442400  79.4313330  89.8990460
  21.3263800  78.7813790  89.0633360  33.7909270  71.8122190  90.3739610
  33.1622430  71.9167860  89.6597840  33.2961190  72.0318970  91.1633490
  28.2367410  83.5327780  87.8073590  28.3379390  83.3291770  86.8775570
  27.3369150  83.2786060  88.0121370  25.7593300  74.0908140  91.7897490
  25.0509450  74.5594480  92.2311100  26.0437780  73.4330150  92.4242680
  29.7908730  70.8158800  93.2293280  29.6676510  70.8344930  92.2802790
  30.7393290  70.8637740  93.3491680  26.8785520  86.0514100  92.5021260
  27.1327020  86.0135490  91.5800630  25.9298000  85.9247430  92.4949510
  23.9628320  72.3993220  89.1648200  24.8118850  72.8363370  89.0988390
  23.5959590  72.7113480  89.9920260  32.8838100  76.9705980  94.0779770
  31.9428240  76.9856210  94.2527460  33.1982170  76.1841940  94.5240070
  22.8619740  78.6525580  87.6383730  23.6283010  78.5406940  88.2009160
  22.9394430  77.9563550  86.9860500  21.5566500  76.0850650  88.3216620
  21.6370090  75.1378160  88.4334020  22.4486250  76.4157530  88.4277280
  22.3581210  86.2346040  95.4251160  23.0943690  85.6861500  95.6959730
  22.7422130  87.1002050  95.2857150  19.2426690  82.3019610  91.2992670
  18.3166470  82.5440750  91.2898080  19.7083120  83.1293870  91.1777420
  25.4683520  85.4076350  87.2476730  26.2612130  85.6965180  86.7958520
  24.9487870  84.9768520  86.5689210  34.5213690  84.6346480  88.6713470
  34.2355200  84.2211620  87.8567650  34.3233240  85.5634190  88.5513990
  25.9860920  80.6279760  87.1119080  25.8811560  80.0132110  87.8380460
  25.8185140  80.1045650  86.3282090  29.2263650  79.6899790  87.7161070
  28.6773750  80.1369090  88.3603810  29.8482910  79.1849040  88.2398740
  24.8938770  78.6490710  89.6126370  25.3155190  78.4830580  90.4557760
  25.0189610  77.8390940  89.1181510  27.4066410  77.6728320  86.8603470
  27.9272070  76.9577340  86.4944620  28.0534810  78.3114190  87.1603980
  23.7897670  74.7223940  86.5584530  23.5886730  73.8591300  86.9197870
  23.6189720  74.6357300  85.6206130  31.2685980  69.5332170  89.0871410
  31.5488270  68.6900070  89.4430830  30.4951710  69.7655280  89.6010160
  22.5880470  71.8224560  86.5462410  22.8906370  71.8291990  85.6381560
  23.3275060  71.4722420  87.0430070  25.8065400  70.7659180  87.5318610
  25.4587400  70.0883170  86.9521060  26.0078170  70.3048690  88.3462000
  27.9714440  85.7539930  89.1505210  28.8665230  86.0924900  89.1723970
  28.0032070  85.0319340  88.5229490  21.6110600  81.1266980  87.3792210
  22.0485470  81.6696650  88.0349790  22.0958330  80.3013930  87.3888550
  18.8256400  83.9156010  94.8312470  19.1559410  83.0477070  94.5991110
  19.2547400  84.1214530  95.6617430  23.4218320  82.2465020  92.4914440
  23.1213860  82.1229990  93.3918350  23.3155810  81.3873610  92.0830170
  36.1910240  82.0261420  87.1941120  35.3603200  82.0938070  87.6648350
  36.3682070  82.9165540  86.8907980  35.6466700  78.7708900  89.6975320
  36.4085610  79.3405550  89.8035010  35.6621070  78.2036100  90.4683630
  19.1471040  77.2946830  93.9282980  18.4919880  77.0258470  93.2842680
  19.9848990  77.1851310  93.4784960  36.6526670  79.6259000  94.5417250
  37.0235500  78.8426320  94.1353220  37.2928600  80.3148100  94.3634550
  35.6985870  79.0643270  86.8547840  35.9734710  79.9722150  86.7267060
  35.5096610  79.0005800  87.7909830  32.0961480  72.0888120  88.1501470
  32.5146360  71.9019100  87.3098130  31.7897540  71.2367170  88.4604400
  35.5951210  77.0012260  91.8477270  35.2194810  76.2340190  91.4158560
  34.8654330  77.3834960  92.3352200  18.3609120  74.5045760  89.8708310
  17.4573200  74.7675960  89.6959970  18.8449740  74.7756930  89.0908270
  34.8702170  75.2269750  95.1484510  35.3939650  74.7332400  94.5174680
  35.4561590  75.3620110  95.8932080  20.9036330  73.5611300  87.7802690
  21.6128030  73.1394520  87.2949970  20.1876270  73.6286530  87.1486040
  20.5510490  69.6150630  86.8205340  21.2738620  70.1559570  87.1386560
  20.8235010  69.3414050  85.9446880  34.3602140  74.4843100  91.0876920
  34.8561260  74.2513970  91.8725800  34.1618210  73.6454940  90.6714560
  35.7889300  73.1204050  93.6214600  35.6788580  72.9660090  94.5596870
  36.5496890  72.5924990  93.3790010  36.6779570  70.9511970  86.8620740
  37.6028880  70.8193150  86.6539030  36.6555360  71.0304790  87.8157190
  36.7518060  71.7222630  89.4877450  35.9569560  71.6567750  90.0170360
  36.9561340  72.6573270  89.4762800  33.6936480  85.7614180  93.4815840
  34.2895550  85.4398750  92.8050260  33.9514630  85.2886000  94.2729110
  33.1837990  70.0519510  95.9376280  33.6246080  69.9964610  95.0897880
  32.9145580  70.9677520  96.0086460  35.0476560  69.6834750  93.9485100
  34.9864960  68.7395970  93.8016120  35.8268590  69.7914840  94.4938560
  19.3529310  85.8227110  92.9109050  19.1851350  85.1897790  93.6090940
  18.4863820  86.0286510  92.5603240  19.9757330  69.6543890  90.4140910
  20.7336690  69.7672770  89.8404940  19.5134500  70.4913090  90.3684340
  26.5171140  71.7683160  93.4043220  25.7045650  71.3940050  93.0639100
  27.0212780  71.0128240  93.7064410  31.0196120  68.4325610  94.6426290
  31.6225490  69.0045820  95.1174810  30.2789110  68.9965050  94.4200190
  34.1630720  68.8347170  89.9166570  34.3581350  69.7330620  90.1834000
  33.3760590  68.6034250  90.4099520  20.9592010  84.5160340  90.3559190
  20.4339630  84.8968370  89.6521150  20.8836590  85.1411110  91.0768900
  22.3482480  70.1807940  88.9542880  22.8775240  69.3937740  88.8250830
  22.9810800  70.8599130  89.1878410  24.5420320  69.9183080  92.0088270
  23.9123060  69.2170390  92.1758400  24.0025460  70.6787210  91.7921430
  35.7157330  86.0747880  91.6773130  35.8909520  85.3885620  91.0334050
  35.0178900  86.5994930  91.2849800  23.5584980  86.4642720  89.2308440
  24.2903800  86.1802000  88.6832330  23.8178650  86.2256000  90.1207820
  22.7199770  82.5807450  89.2354770  22.0908650  83.0492550  89.7840600
  22.8347600  81.7356670  89.6700960  30.1749490  76.6313110  75.3855970
  30.0943540  75.7167720  75.1147680  29.7613910  77.1280180  74.6795680
  28.3067530  78.4092130  77.2665240  27.5309630  77.9292570  77.5563810
  28.9580460  77.7297780  77.0921400  22.3233360  78.7211940  78.1441000
  21.4918240  78.4660650  78.5437510  22.9314340  78.7922710  78.8798920
  32.3274960  82.8152320  76.0464370  31.8656490  82.0439560  76.3751540
  33.1400510  82.8418390  76.5516820  22.3034620  82.7552030  78.3399020
  22.6062660  81.8649770  78.1609240  23.0478210  83.3122250  78.1121270
  20.7325310  73.6813830  71.9283390  19.8442010  74.0229800  71.8263270
  21.0166500  73.4814150  71.0364220  18.6958320  76.2819480  77.8123090
  19.2674430  75.5141680  77.8126730  18.6959860  76.5808240  76.9029700
  28.5538270  85.1010330  75.6668360  27.9349710  85.5567830  75.0962800
  29.4090050  85.2561790  75.2658060  27.7476520  81.0849320  77.2735400
  27.6784800  80.1439260  77.1124530  28.5096380  81.1750730  77.8457970
  19.9383190  71.6903840  79.5992020  19.7586030  70.7929590  79.8794780
  19.5363270  72.2375710  80.2738970  28.7781690  73.8919700  77.5004330
  29.1546510  73.0191580  77.3878000  28.6801200  74.2278400  76.6094770
  22.9086700  72.2645330  72.9621770  23.0153450  73.1649060  73.2690530
  21.9979060  72.2163300  72.6716420  32.5605810  71.3870140  74.4332670
  33.3815430  70.8966710  74.4758150  32.5939890  71.9767800  75.1864510
  20.5569860  74.1864340  78.2074360  21.2379970  74.4502710  78.8261760
  20.2417910  73.3465210  78.5412370  24.7494430  75.2331700  77.2946950
  25.2572650  75.7312670  77.9351970  25.2807670  74.4566900  77.1186310
  36.8505360  73.4036890  80.9976300  36.1457530  73.7918600  80.4791410
  37.1163280  74.0987180  81.5997230  23.0330530  69.8730260  81.5610370
  23.0348970  70.3902650  80.7556270  22.2034840  69.3960440  81.5380300
  29.4201620  79.9849570  73.0600270  28.8018890  80.4499020  72.4962990
  29.9324870  80.6777050  73.4769780  24.2833380  79.5125440  79.7383870
  23.9502760  80.1394360  80.3804940  24.4600060  80.0387320  78.9585540
  32.7967290  73.3270520  77.2060210  32.0922860  73.6155410  77.7863320
  33.1579450  74.1370630  76.8459770  22.7145860  71.5840220  79.5680820
  23.0562670  72.4282270  79.2734690  21.7761670  71.7323960  79.6846160
  23.4952480  81.4806240  81.5533050  24.1126480  82.1557320  81.2717500
  22.6345600  81.8894220  81.4620550  18.7884820  80.6706100  70.4339900
  18.4112800  81.1593200  69.7024800  19.0457890  81.3431380  71.0646430
  34.4130070  82.9445650  79.4687690  33.7293590  83.6144760  79.4604360
  34.9524360  83.1426300  78.7032550  35.8654210  72.7725310  77.5969420
  34.9179120  72.8064290  77.7284850  36.1904200  73.5864260  77.9818780
  26.3973750  69.0722490  75.8925410  26.7048730  68.5169380  75.1760910
  25.4674450  69.2066950  75.7098400  31.9488810  84.7889780  78.1832870
  31.9615970  84.3852070  77.3155130  31.3964030  85.5637070  78.0794300
  33.2434230  81.5106000  73.2723040  33.1330560  80.5680330  73.3972460
  33.2402480  81.8721640  74.1585800  31.3474250  79.6919620  79.5115480
  31.7643040  79.4779730  78.6768940  32.0714070  79.9492410  80.0824100
  28.7854510  77.1371320  72.6285530  27.8583790  77.0708700  72.8574000
  28.9379330  78.0751450  72.5140770  28.7723590  73.4088320  69.6252690
  27.8327260  73.5702280  69.7105150  29.0906850  74.1274000  69.0788680
  35.2936350  78.0906840  79.6031720  34.4654980  78.1599930  79.1281850
  35.8886830  78.6761150  79.1347550  32.8151800  78.6991620  73.1320780
  32.1964220  78.3611170  72.4847080  32.7976250  78.0551380  73.8399970
  32.2578360  74.8776160  80.5486590  31.8449540  75.7029870  80.8026580
  31.5254310  74.2921200  80.3562950  24.3911150  77.6636060  75.4105260
  23.9868150  76.9513310  74.9151160  24.4774270  77.3189300  76.2993300
  24.8592850  81.3503620  77.5744470  24.5621140  80.7449090  76.8952250
  25.8092670  81.3880930  77.4633830  23.1039770  74.4379270  79.1904300
  23.6554360  74.5474610  78.4157550  23.6183280  74.8116870  79.9059530
  32.9478460  84.9235490  81.2367570  32.4709020  85.7307680  81.0440180
  32.2640250  84.2713820  81.3893780  23.9511280  81.0885310  84.2252270
  23.0539810  81.3125280  84.4725670  23.9764150  81.2120250  83.2763670
  30.9916500  77.9378430  70.1393530  31.4309780  77.1000860  69.9931350
  31.7044920  78.5707830  70.2257670  22.7782500  77.9598630  82.8009640
  22.6390270  78.8321430  83.1697040  21.8963860  77.6171440  82.6557580
  29.1011880  82.8774500  74.1074770  29.5407790  83.6198830  73.6930160
  29.0398770  83.1201070  75.0313730  24.5762850  83.9020330  85.0094790
  24.5478280  84.3063280  84.1423220  24.4127820  82.9730690  84.8466390
  34.5733640  69.1921240  68.4534570  34.2606300  69.2848070  69.3533640
  35.3346110  69.7702270  68.4032000  21.0915780  76.5581040  72.9111910
  20.9713380  77.2843130  72.2993180  20.7816670  75.7883950  72.4339820
  36.5277670  84.6847430  86.3058960  37.0037390  85.1630320  86.9848040
  37.1484830  84.6164920  85.5804460  18.7301150  79.7296180  78.7180550
  18.8081570  79.8644950  77.7736270  19.3442830  79.0212070  78.9108670
  19.9748780  81.4296370  75.1286730  19.5676860  81.5710960  74.2740330
  20.8661790  81.1456530  74.9257940  35.9310920  81.8760280  83.4658970
  36.0573980  81.6372160  82.5476150  35.9732300  81.0444820  83.9381050
  29.7927660  85.5788280  82.0353780  30.3072330  85.4896290  82.8376210
  28.9496740  85.9247980  82.3281690  31.7682060  85.8643620  71.4637780
  31.6083200  85.5746560  72.3619610  31.6028770  85.0883750  70.9283010
  24.2470440  85.6442150  73.2409400  24.0712920  84.7277690  73.0277200
  23.3926180  86.0029440  73.4807200  31.4708190  83.3731180  70.0235780
  30.7773350  83.3708470  69.3638060  32.2131050  82.9490500  69.5929950
  31.0358120  84.9993890  74.0984270  31.4915070  84.2183270  74.4122890
  31.3750640  85.7100710  74.6425450  35.7834930  73.9292740  84.4308710
  35.1679200  74.4372410  83.9024170  35.4631350  73.0291070  84.3734650
  18.7860670  80.7710350  81.2575010  18.9491710  80.3015710  80.4394380
  19.2513120  80.2633910  81.9223850  23.5579440  69.9016110  76.2935580
  23.1147590  70.6825650  75.9620100  24.1164430  70.2246000  77.0006520
  27.8449250  72.7684630  81.8970900  27.3828620  72.9767650  82.7090840
  27.4427360  71.9543980  81.5941570  32.8453760  73.9893580  83.0267560
  31.9947350  73.6899330  83.3476630  32.6855550  74.2335590  82.1151380
  29.9403470  75.4895330  85.1266350  30.2656880  74.6559080  84.7868580
  30.7283800  76.0123850  85.2744680  26.6738260  69.5226810  71.1741410
  26.0492440  69.5186680  71.8994720  26.5868380  68.6557770  70.7777380
  25.5955340  70.4463440  78.1525180  25.8927670  71.3526270  78.0717200
  26.1440900  69.9582220  77.5384750  23.3493660  75.0249680  74.0216830
  23.1234580  74.8086850  74.9263450  22.5686190  75.4578140  73.6762800
  30.5791420  75.0313050  72.6207480  29.9800310  75.7548850  72.4371100
  31.1271030  74.9689830  71.8383930  25.7892870  75.9235260  84.6877100
  25.6936470  74.9829990  84.5377500  26.6324850  76.1450330  84.2925170
  29.1856290  73.6676590  74.6510760  29.5785860  73.9848790  73.8379450
  29.5473140  72.7888470  74.7655280  20.9203410  72.3348930  82.8410880
  20.5266800  73.1824140  83.0483660  20.2321810  71.6975300  83.0319520
  27.4948460  72.4183900  85.9107620  26.8046780  72.2256100  86.5453710
  28.2380760  72.7018540  86.4431920  18.2220460  70.2577390  76.8740960
  17.9333510  70.8280250  77.5865940  18.9666220  69.7781840  77.2372190
  18.4090690  74.1997510  68.0843680  18.3265360  75.1428270  68.2258670
  18.0573750  74.0572420  67.2056030  29.7711430  76.2582340  78.7461540
  29.0392550  76.7669150  79.0951640  29.3735770  75.4412320  78.4450320
  26.2088820  72.9336540  77.1514030  26.2124880  72.4926490  76.3018570
  27.1039940  73.2553870  77.2585850  22.0591200  72.8163030  76.1108240
  21.7191250  73.2938260  76.8675290  21.2968520  72.3628150  75.7509340
  26.2708970  73.9348620  70.1420790  26.3921790  73.8935100  71.0906610
  25.8857480  74.7972770  69.9867520  30.2337340  71.7116020  78.1584480
  30.2510080  72.1624670  79.0026330  29.9852920  70.8121660  78.3717920
  25.2830470  76.2449760  69.5404090  24.7147370  75.7968010  68.9140000
  25.9919470  76.6042540  69.0069240  33.6608090  69.1248200  83.9970860
  33.9853860  68.3937860  84.5228840  33.6964600  68.8061840  83.0951850
  20.3599650  80.1461780  83.4170820  19.9754440  79.5055450  84.0153780
  20.6711840  80.8497900  83.9865550  26.5096790  76.9938320  78.8979440
  26.8766920  76.5196890  79.6440780  26.3201850  77.8679890  79.2387780
  19.3737280  71.7382010  75.0272910  19.0884200  71.3737680  75.8651530
  19.3116140  71.0062470  74.4136050  24.2996160  76.0346960  81.2163650
  23.9953230  76.9138940  81.4414010  25.2542620  76.0946750  81.2521090
  22.8277950  80.2407950  71.8130500  22.0540210  79.7005570  71.6529220
  23.5572580  79.7214560  71.4748260  33.5865930  79.2373310  77.6056890
  34.3065050  79.7328600  77.2153000  33.3847750  78.5591200  76.9610760
  29.0475870  70.6311270  71.7486280  28.2340480  70.1324440  71.6731590
  28.8537820  71.4709520  71.3322630  28.9684730  79.3082370  83.4925890
  28.9022040  78.3878040  83.2383480  28.3389870  79.4057810  84.2070530
  31.7624260  75.0030920  70.0448440  32.6503880  75.3148150  69.8699780
  31.7329350  74.1303170  69.6529020  22.8715350  79.9088330  75.4509310
  23.3894020  79.1056590  75.3966200  22.4199370  79.8467470  76.2926140
  27.7584850  81.1754610  70.7236610  28.1000550  81.9196840  70.2279930
  26.9297560  81.4885730  71.0861440  20.3559890  76.8749700  82.3635010
  19.9974830  77.5403550  82.9508350  20.0614450  76.0433250  82.7347630
  23.5573010  77.3333940  85.2474560  23.2573150  77.4791120  84.3502380
  24.3284250  76.7739230  85.1547950  28.9001460  82.1302940  83.2429690
  28.9146000  81.1983900  83.0248600  28.1926560  82.2162700  83.8819460
  34.0338530  76.3142760  69.5128300  33.9502250  76.7456980  68.6624740
  34.7532720  76.7741110  69.9455120  35.1112670  78.7710280  82.5898270
  34.3860860  79.3639060  82.3927660  35.6388130  78.7633820  81.7911640
  35.0625780  83.1685020  72.2410430  34.4201940  82.5140640  72.5154150
  34.6756440  83.5740110  71.4651100  30.6412260  80.4970450  76.0882120
  30.9936080  79.8998580  75.4283490  29.7574590  80.1714680  76.2590370
  26.7275540  81.2568140  73.4952530  27.4146670  81.8037350  73.8760120
  25.9407960  81.8008870  73.5302140  18.8667940  76.8740960  68.9869610
  19.7362790  77.1565760  69.2705530  18.3758260  77.6876830  68.8718420
  26.0302750  78.2614170  73.1077890  26.4865530  79.0719420  73.3338080
  25.6790960  77.9437310  73.9396380  28.3335360  83.7720510  80.3370190
  28.9777580  83.9779890  81.0143610  28.6964800  83.0108910  79.8841040
  21.9314530  68.6051820  73.5800410  21.8029160  68.5969720  74.5285330
  21.1076550  68.9434910  73.2291420  29.6067440  81.7752860  79.0547640
  30.2489670  81.0746020  79.1679810  30.1316790  82.5551300  78.8744530
  33.4523160  82.0601480  68.7786780  33.2260740  81.3431920  69.3711420
  33.0619360  81.8113920  67.9408530  31.3805060  82.5747760  82.2583700
  31.7161300  83.1614450  82.9361620  30.4605400  82.4440470  82.4881490
  19.2339190  86.0868340  69.5531240  19.5936830  86.6857680  68.8988510
  19.0931530  86.6328230  70.3266270  18.9308460  70.3642940  83.0407110
  18.2166980  70.5639860  83.6459720  19.3503500  69.5882510  83.4121910
  33.0339410  79.9773420  70.4400940  32.7461110  80.4386110  71.2278820
  33.8291580  79.5171190  70.7085160  19.2181050  84.3523200  84.0273640
  19.3272170  83.4117940  83.8869030  18.5661610  84.6177950  83.3787370
  27.2093640  82.6239090  85.4271760  26.8890510  81.9048330  85.9717450
  26.5352000  83.2994160  85.5007820  25.2507810  83.4699540  70.3704910
  25.2417910  84.2029230  69.7549420  24.3306170  83.2231120  70.4631870
  20.8514450  78.6914430  71.1151670  20.2442400  79.4313330  71.1246970
  21.3263800  78.7813790  70.2889870  30.4247240  72.8565250  80.7908560
  30.7928060  72.0360460  81.1188130  29.5645440  72.9167140  81.2064210
  33.7909270  71.8122190  71.5996120  33.1622430  71.9167860  70.8854350
  33.2961190  72.0318970  72.3890000  28.2367410  83.5327780  69.0330100
  28.3379390  83.3291770  68.1032080  27.3369150  83.2786060  69.2377880
  25.7593300  74.0908140  73.0154000  25.0509450  74.5594480  73.4567610
  26.0437780  73.4330150  73.6499190  27.3849230  75.5104840  81.0146530
  27.8834480  75.9850660  81.6798380  27.5272180  74.5868360  81.2216560
  29.7908730  70.8158800  74.4549790  29.6676510  70.8344930  73.5059300
  30.7393290  70.8637740  74.5748190  26.8785520  86.0514100  73.7277770
  27.1327020  86.0135490  72.8057140  25.9298000  85.9247430  73.7206020
  23.9628320  72.3993220  70.3904710  24.8118850  72.8363370  70.3244900
  23.5959590  72.7113480  71.2176770  34.5916090  71.7272800  81.8574920
  34.0889690  72.4678200  82.1968730  35.4072750  72.1156800  81.5411710
  32.8838100  76.9705980  75.3036280  31.9428240  76.9856210  75.4783970
  33.1982170  76.1841940  75.7496580  22.8619740  78.6525580  68.8640240
  23.6283010  78.5406940  69.4265670  22.9394430  77.9563550  68.2117010
  21.5566500  76.0850650  69.5473130  21.6370090  75.1378160  69.6590530
  22.4486250  76.4157530  69.6533790  34.8863680  84.1414830  76.9790540
  35.0111100  84.9646000  77.4514350  35.7529240  83.9305560  76.6314690
  22.3581210  86.2346040  76.6507670  23.0943690  85.6861500  76.9216240
  22.7422130  87.1002050  76.5113660  19.2426690  82.3019610  72.5249180
  18.3166470  82.5440750  72.5154590  19.7083120  83.1293870  72.4033930
  21.3639490  85.4192110  85.8393250  22.1652220  85.7404160  86.2528650
  20.8491310  85.0587690  86.5613160  25.4683520  85.4076350  68.4733240
  26.2612130  85.6965180  68.0215030  24.9487870  84.9768520  67.7945720
  30.2004120  81.5271980  85.7868660  29.5942280  81.5503580  85.0464410
  29.8958230  80.7955020  86.3235910  31.6304490  85.2552270  84.3978070
  32.5826240  85.1710290  84.3478310  31.4832710  85.9193980  85.0711860
  34.5213690  84.6346480  69.8969980  34.2355200  84.2211620  69.0824160
  34.3233240  85.5634190  69.7770500  19.0837300  77.9065570  84.7829300
  19.5876320  77.3272850  85.3545530  18.3444720  78.1905800  85.3205670
  25.9860920  80.6279760  68.3375590  25.8811560  80.0132110  69.0636970
  25.8185140  80.1045650  67.5538600  26.1375240  79.3136560  84.3164820
  25.3720910  79.8821560  84.2319490  26.3191200  79.0212770  83.4233050
  29.2263650  79.6899790  68.9417580  28.6773750  80.1369090  69.5860320
  29.8482910  79.1849040  69.4655250  33.2798590  81.0441890  84.8739840
  34.0208060  81.3817650  84.3707300  32.5171270  81.2133950  84.3209610
  21.1160380  76.0495160  85.6779370  21.1565720  75.7509030  86.5864600
  21.9705880  76.4502770  85.5186890  24.8938770  78.6490710  70.8382880
  25.3155190  78.4830580  71.6814270  25.0189610  77.8390940  70.3438020
  23.0566190  74.6287260  83.6453860  22.5262650  74.1378210  83.0177200
  23.7254260  75.0571460  83.1111790  27.4066410  77.6728320  68.0859980
  27.9272070  76.9577340  67.7201130  28.0534810  78.3114190  68.3860490
  31.9544250  79.0956720  83.4095050  32.3685270  79.2501800  84.2585470
  31.0195250  79.2211940  83.5720830  32.4266420  76.4352880  85.4134200
  33.0087190  75.6805200  85.3254680  32.6028190  76.9660320  84.6365680
  23.5438490  71.5949630  83.7251150  23.4495360  70.9770380  83.0002020
  22.9635880  72.3215920  83.4981060  26.3099930  70.1522870  80.7578540
  25.8617230  70.1747130  79.9124090  25.6765130  69.7541890  81.3548840
  26.7159480  79.0477200  81.3790980  27.1347590  79.8909930  81.2067220
  25.7968110  79.1849240  81.1497760  29.0523380  76.7793380  82.7628820
  29.1719590  76.1834520  83.5023660  29.9117380  76.8163070  82.3430120
  31.3911280  77.3330570  81.3391330  30.8646500  77.8573190  80.7356470
  31.7342620  77.9657960  81.9701060  23.7897670  74.7223940  67.7841040
  23.5886730  73.8591300  68.1454380  23.6189720  74.6357300  66.8462640
  24.5666900  85.3530210  82.4948710  24.0287990  86.0776270  82.1757410
  24.8200860  84.8760550  81.7046050  25.8192150  73.3214730  84.0204640
  26.4091840  73.0130580  84.7082460  25.0012390  72.8494480  84.1764540
  30.6385580  72.9380540  84.2537660  29.9501100  72.2762080  84.1887650
  31.3591600  72.4918810  84.6986120  31.2685980  69.5332170  70.3127920
  31.5488270  68.6900070  70.6687340  30.4951710  69.7655280  70.8266670
  22.5880470  71.8224560  67.7718920  22.8906370  71.8291990  66.8638070
  23.3275060  71.4722420  68.2686580  27.4229110  86.5881420  82.7535360
  27.3487810  87.4916560  83.0607730  26.5207950  86.2693320  82.7257430
  25.8065400  70.7659180  68.7575120  25.4587400  70.0883170  68.1777570
  26.0078170  70.3048690  69.5718510  27.9714440  85.7539930  70.3761720
  28.8665230  86.0924900  70.3980480  28.0032070  85.0319340  69.7486000
  21.6110600  81.1266980  68.6048720  22.0485470  81.6696650  69.2606300
  22.0958330  80.3013930  68.6145060  18.8256400  83.9156010  76.0568980
  19.1559410  83.0477070  75.8247620  19.2547400  84.1214530  76.8873940
  23.4218320  82.2465020  73.7170950  23.1213860  82.1229990  74.6174860
  23.3155810  81.3873610  73.3086680  19.3146610  84.7826600  78.7950610
  18.8777600  84.9627400  79.6274760  19.8824290  85.5401220  78.6532330
  34.9508790  84.2843600  83.0827920  34.3510780  84.3436160  82.3391840
  35.0802690  83.3448580  83.2124770  36.1910240  82.0261420  68.4197630
  35.3603200  82.0938070  68.8904860  36.3682070  82.9165540  68.1164490
  35.6466700  78.7708900  70.9231830  36.4085610  79.3405550  71.0291520
  35.6621070  78.2036100  71.6940140  19.1471040  77.2946830  75.1539490
  18.4919880  77.0258470  74.5099190  19.9848990  77.1851310  74.7041470
  36.6526670  79.6259000  75.7673760  37.0235500  78.8426320  75.3609730
  37.2928600  80.3148100  75.5891060  33.6360430  81.0095580  81.1804080
  32.8220270  81.4392740  81.4429870  34.0434630  81.6213990  80.5673130
  35.6985870  79.0643270  68.0804350  35.9734710  79.9722150  67.9523570
  35.5096610  79.0005800  69.0166340  32.0961480  72.0888120  69.3757980
  32.5146360  71.9019100  68.5354640  31.7897540  71.2367170  69.6860910
  35.5951210  77.0012260  73.0733780  35.2194810  76.2340190  72.6415070
  34.8654330  77.3834960  73.5608710  20.1846970  77.6799400  79.6942830
  20.5520010  77.5926800  80.5738850  19.6157790  76.9165950  79.5949690
  34.9850830  76.1483780  82.7073300  34.7536920  75.9196530  81.8071250
  35.2455380  77.0683330  82.6618190  19.7362970  74.5908490  83.6001250
  18.8419020  74.5575250  83.9394960  20.2760520  74.7895280  84.3652500
  33.4238900  71.3740210  85.4853000  34.3009080  71.3823610  85.8687000
  33.4359740  70.6371050  84.8745350  18.3609120  74.5045760  71.0964820
  17.4573200  74.7675960  70.9216480  18.8449740  74.7756930  70.3164780
  34.8702170  75.2269750  76.3741020  35.3939650  74.7332400  75.7431190
  35.4561590  75.3620110  77.1188590  35.0491890  75.3109620  79.8960570
  34.0994600  75.2773160  80.0105560  35.2304900  76.2209730  79.6610340
  20.9036330  73.5611300  69.0059200  21.6128030  73.1394520  68.5206480
  20.1876270  73.6286530  68.3742550  20.5510490  69.6150630  68.0461850
  21.2738620  70.1559570  68.3643070  20.8235010  69.3414050  67.1703390
  34.3602140  74.4843100  72.3133430  34.8561260  74.2513970  73.0982310
  34.1618210  73.6454940  71.8971070  20.2402680  68.8656820  77.9484470
  20.8878870  68.3154200  77.5079630  20.6604520  69.1199970  78.7700280
  35.7889300  73.1204050  74.8471110  35.6788580  72.9660090  75.7853380
  36.5496890  72.5924990  74.6046520  34.1355020  69.0598180  81.3054110
  34.7727240  69.6732320  81.6713300  34.2829910  69.0958840  80.3603340
  36.6779570  70.9511970  68.0877250  37.6028880  70.8193150  67.8795540
  36.6555360  71.0304790  69.0413700  36.7518060  71.7222630  70.7133960
  35.9569560  71.6567750  71.2426870  36.9561340  72.6573270  70.7019310
  33.6936480  85.7614180  74.7072350  34.2895550  85.4398750  74.0306770
  33.9514630  85.2886000  75.4985620  19.9934680  69.0212490  80.6909790
  19.6449500  69.4776310  81.4567970  19.6622380  68.1269620  80.7732220
  21.5999050  82.1932090  84.8562980  21.5568680  81.8225000  85.7377440
  21.7310060  83.1309660  84.9964800  25.3005080  83.7491680  80.4572700
  25.0596440  84.0166240  79.5703220  26.2407720  83.9197410  80.5123560
  27.5059500  70.2124370  84.2129210  27.4448390  70.8046200  84.9624620
  28.4459880  70.1050330  84.0679470  30.1434060  69.8694430  83.8521500
  30.7574470  70.1873720  83.1902580  30.6883620  69.3843020  84.4717360
  36.5609240  85.7686060  81.2583340  36.0667520  86.1654930  80.5410470
  35.9522530  85.1435270  81.6520620  20.6655320  68.5488690  83.9660560
  21.2138310  68.3676740  83.2026670  20.7310630  67.7582800  84.5016870
  21.4387080  85.1394340  81.9760760  20.8447400  85.0079040  82.7150800
  21.4310920  84.3032480  81.5102860  30.8842100  68.4326570  80.1790790
  30.0101940  68.7661680  79.9763720  30.7752850  67.9599750  81.0042660
  31.7914080  70.6397440  81.5632510  31.4627440  69.8249200  81.1834240
  32.7396380  70.5967250  81.4398200  34.2448690  86.4109480  78.5370080
  33.7851660  87.1625290  78.1628100  33.6161150  85.6915950  78.4784880
  21.0699310  82.5052720  80.9268800  20.3433370  81.8858010  80.8594750
  21.1308460  82.8993330  80.0566880  24.6744410  84.7197720  77.7118210
  25.1909430  84.1085080  77.1866470  25.3241790  85.2226500  78.2029220
  27.4139910  85.6106210  78.5387190  27.7017720  85.3560510  77.6620200
  27.9263130  85.0583570  79.1292760  28.6316920  69.3496410  79.1183700
  27.8488710  69.8241910  79.3980460  28.3379850  68.4451240  79.0096880
  33.1837990  70.0519510  77.1632790  33.6246080  69.9964610  76.3154390
  32.9145580  70.9677520  77.2342970  35.0476560  69.6834750  75.1741610
  34.9864960  68.7395970  75.0272630  35.8268590  69.7914840  75.7195070
  19.3529310  85.8227110  74.1365560  19.1851350  85.1897790  74.8347450
  18.4863820  86.0286510  73.7859750  19.9757330  69.6543890  71.6397420
  20.7336690  69.7672770  71.0661450  19.5134500  70.4913090  71.5940850
  26.5171140  71.7683160  74.6299730  25.7045650  71.3940050  74.2895610
  27.0212780  71.0128240  74.9320920  31.0196120  68.4325610  75.8682800
  31.6225490  69.0045820  76.3431320  30.2789110  68.9965050  75.6456700
  34.1630720  68.8347170  71.1423080  34.3581350  69.7330620  71.4090510
  33.3760590  68.6034250  71.6356030  20.9592010  84.5160340  71.5815700
  20.4339630  84.8968370  70.8777660  20.8836590  85.1411110  72.3025410
  22.3482480  70.1807940  70.1799390  22.8775240  69.3937740  70.0507340
  22.9810800  70.8599130  70.4134920  24.5420320  69.9183080  73.2344780
  23.9123060  69.2170390  73.4014910  24.0025460  70.6787210  73.0177940
  27.4812270  86.5322310  85.9055390  28.4079580  86.2966580  85.9491350
  27.4662700  87.3594310  85.4241420  35.7157330  86.0747880  72.9029640
  35.8909520  85.3885620  72.2590560  35.0178900  86.5994930  72.5106310
  24.6675880  69.1967060  85.6697270  24.3860150  69.7000660  84.9058090
  25.0495580  68.3988810  85.3039400  23.5584980  86.4642720  70.4564950
  24.2903800  86.1802000  69.9088840  23.8178650  86.2256000  71.3464330
  22.7199770  82.5807450  70.4611280  22.0908650  83.0492550  71.0097110
  22.8347600  81.7356670  70.8957470  31.2691340  68.6120640  86.2477740
  31.1556790  68.9315250  87.1429260  32.0861080  69.0133150  85.9515020
  34.0489830  85.7592170  85.7296430  34.8415150  85.2641400  85.5222390
  34.3422980  86.4382310  86.3372040  30.1749490  76.6313110  56.6112480
  30.0943540  75.7167720  56.3404190  29.7613910  77.1280180  55.9052190
  28.3067530  78.4092130  58.4921750  27.5309630  77.9292570  58.7820320
  28.9580460  77.7297780  58.3177910  22.3233360  78.7211940  59.3697510
  21.4918240  78.4660650  59.7694020  22.9314340  78.7922710  60.1055430
  32.3274960  82.8152320  57.2720880  31.8656490  82.0439560  57.6008050
  33.1400510  82.8418390  57.7773330  22.3034620  82.7552030  59.5655530
  22.6062660  81.8649770  59.3865750  23.0478210  83.3122250  59.3377780
  20.7325310  73.6813830  53.1539900  19.8442010  74.0229800  53.0519780
  21.0166500  73.4814150  52.2620730  18.6958320  76.2819480  59.0379600
  19.2674430  75.5141680  59.0383240  18.6959860  76.5808240  58.1286210
  28.5538270  85.1010330  56.8924870  27.9349710  85.5567830  56.3219310
  29.4090050  85.2561790  56.4914570  27.7476520  81.0849320  58.4991910
  27.6784800  80.1439260  58.3381040  28.5096380  81.1750730  59.0714480
  19.9383190  71.6903840  60.8248530  19.7586030  70.7929590  61.1051290
  19.5363270  72.2375710  61.4995480  28.7781690  73.8919700  58.7260840
  29.1546510  73.0191580  58.6134510  28.6801200  74.2278400  57.8351280
  22.9086700  72.2645330  54.1878280  23.0153450  73.1649060  54.4947040
  21.9979060  72.2163300  53.8972930  32.5605810  71.3870140  55.6589180
  33.3815430  70.8966710  55.7014660  32.5939890  71.9767800  56.4121020
  20.5569860  74.1864340  59.4330870  21.2379970  74.4502710  60.0518270
  20.2417910  73.3465210  59.7668880  24.7494430  75.2331700  58.5203460
  25.2572650  75.7312670  59.1608480  25.2807670  74.4566900  58.3442820
  36.8505360  73.4036890  62.2232810  36.1457530  73.7918600  61.7047920
  37.1163280  74.0987180  62.8253740  23.0330530  69.8730260  62.7866880
  23.0348970  70.3902650  61.9812780  22.2034840  69.3960440  62.7636810
  29.4201620  79.9849570  54.2856780  28.8018890  80.4499020  53.7219500
  29.9324870  80.6777050  54.7026290  24.2833380  79.5125440  60.9640380
  23.9502760  80.1394360  61.6061450  24.4600060  80.0387320  60.1842050
  32.7967290  73.3270520  58.4316720  32.0922860  73.6155410  59.0119830
  33.1579450  74.1370630  58.0716280  22.7145860  71.5840220  60.7937330
  23.0562670  72.4282270  60.4991200  21.7761670  71.7323960  60.9102670
  23.4952480  81.4806240  62.7789560  24.1126480  82.1557320  62.4974010
  22.6345600  81.8894220  62.6877060  18.7884820  80.6706100  51.6596410
  18.4112800  81.1593200  50.9281310  19.0457890  81.3431380  52.2902940
  34.4130070  82.9445650  60.6944200  33.7293590  83.6144760  60.6860870
  34.9524360  83.1426300  59.9289060  35.8654210  72.7725310  58.8225930
  34.9179120  72.8064290  58.9541360  36.1904200  73.5864260  59.2075290
  26.3973750  69.0722490  57.1181920  26.7048730  68.5169380  56.4017420
  25.4674450  69.2066950  56.9354910  31.9488810  84.7889780  59.4089380
  31.9615970  84.3852070  58.5411640  31.3964030  85.5637070  59.3050810
  33.2434230  81.5106000  54.4979550  33.1330560  80.5680330  54.6228970
  33.2402480  81.8721640  55.3842310  31.3474250  79.6919620  60.7371990
  31.7643040  79.4779730  59.9025450  32.0714070  79.9492410  61.3080610
  28.7854510  77.1371320  53.8542040  27.8583790  77.0708700  54.0830510
  28.9379330  78.0751450  53.7397280  28.7723590  73.4088320  50.8509200
  27.8327260  73.5702280  50.9361660  29.0906850  74.1274000  50.3045190
  35.2936350  78.0906840  60.8288230  34.4654980  78.1599930  60.3538360
  35.8886830  78.6761150  60.3604060  32.8151800  78.6991620  54.3577290
  32.1964220  78.3611170  53.7103590  32.7976250  78.0551380  55.0656480
  32.2578360  74.8776160  61.7743100  31.8449540  75.7029870  62.0283090
  31.5254310  74.2921200  61.5819460  24.3911150  77.6636060  56.6361770
  23.9868150  76.9513310  56.1407670  24.4774270  77.3189300  57.5249810
  24.8592850  81.3503620  58.8000980  24.5621140  80.7449090  58.1208760
  25.8092670  81.3880930  58.6890340  23.1039770  74.4379270  60.4160810
  23.6554360  74.5474610  59.6414060  23.6183280  74.8116870  61.1316040
  32.9478460  84.9235490  62.4624080  32.4709020  85.7307680  62.2696690
  32.2640250  84.2713820  62.6150290  23.9511280  81.0885310  65.4508780
  23.0539810  81.3125280  65.6982180  23.9764150  81.2120250  64.5020180
  30.9916500  77.9378430  51.3650040  31.4309780  77.1000860  51.2187860
  31.7044920  78.5707830  51.4514180  22.7782500  77.9598630  64.0266150
  22.6390270  78.8321430  64.3953550  21.8963860  77.6171440  63.8814090
  29.1011880  82.8774500  55.3331280  29.5407790  83.6198830  54.9186670
  29.0398770  83.1201070  56.2570240  24.5762850  83.9020330  66.2351300
  24.5478280  84.3063280  65.3679730  24.4127820  82.9730690  66.0722900
  34.5733640  69.1921240  49.6791080  34.2606300  69.2848070  50.5790150
  35.3346110  69.7702270  49.6288510  21.0915780  76.5581040  54.1368420
  20.9713380  77.2843130  53.5249690  20.7816670  75.7883950  53.6596330
  36.5277670  84.6847430  67.5315470  37.0037390  85.1630320  68.2104550
  37.1484830  84.6164920  66.8060970  18.7301150  79.7296180  59.9437060
  18.8081570  79.8644950  58.9992780  19.3442830  79.0212070  60.1365180
  19.9748780  81.4296370  56.3543240  19.5676860  81.5710960  55.4996840
  20.8661790  81.1456530  56.1514450  35.9310920  81.8760280  64.6915480
  36.0573980  81.6372160  63.7732660  35.9732300  81.0444820  65.1637560
  29.7927660  85.5788280  63.2610290  30.3072330  85.4896290  64.0632720
  28.9496740  85.9247980  63.5538200  31.7682060  85.8643620  52.6894290
  31.6083200  85.5746560  53.5876120  31.6028770  85.0883750  52.1539520
  24.2470440  85.6442150  54.4665910  24.0712920  84.7277690  54.2533710
  23.3926180  86.0029440  54.7063710  31.4708190  83.3731180  51.2492290
  30.7773350  83.3708470  50.5894570  32.2131050  82.9490500  50.8186460
  31.0358120  84.9993890  55.3240780  31.4915070  84.2183270  55.6379400
  31.3750640  85.7100710  55.8681960  35.7834930  73.9292740  65.6565220
  35.1679200  74.4372410  65.1280680  35.4631350  73.0291070  65.5991160
  18.7860670  80.7710350  62.4831520  18.9491710  80.3015710  61.6650890
  19.2513120  80.2633910  63.1480360  23.5579440  69.9016110  57.5192090
  23.1147590  70.6825650  57.1876610  24.1164430  70.2246000  58.2263030
  27.8449250  72.7684630  63.1227410  27.3828620  72.9767650  63.9347350
  27.4427360  71.9543980  62.8198080  32.8453760  73.9893580  64.2524070
  31.9947350  73.6899330  64.5733140  32.6855550  74.2335590  63.3407890
  29.9403470  75.4895330  66.3522860  30.2656880  74.6559080  66.0125090
  30.7283800  76.0123850  66.5001190  26.6738260  69.5226810  52.3997920
  26.0492440  69.5186680  53.1251230  26.5868380  68.6557770  52.0033890
  25.5955340  70.4463440  59.3781690  25.8927670  71.3526270  59.2973710
  26.1440900  69.9582220  58.7641260  23.3493660  75.0249680  55.2473340
  23.1234580  74.8086850  56.1519960  22.5686190  75.4578140  54.9019310
  30.5791420  75.0313050  53.8463990  29.9800310  75.7548850  53.6627610
  31.1271030  74.9689830  53.0640440  25.7892870  75.9235260  65.9133610
  25.6936470  74.9829990  65.7634010  26.6324850  76.1450330  65.5181680
  29.1856290  73.6676590  55.8767270  29.5785860  73.9848790  55.0635960
  29.5473140  72.7888470  55.9911790  20.9203410  72.3348930  64.0667390
  20.5266800  73.1824140  64.2740170  20.2321810  71.6975300  64.2576030
  27.4948460  72.4183900  67.1364130  26.8046780  72.2256100  67.7710220
  28.2380760  72.7018540  67.6688430  18.2220460  70.2577390  58.0997470
  17.9333510  70.8280250  58.8122450  18.9666220  69.7781840  58.4628700
  18.4090690  74.1997510  49.3100190  18.3265360  75.1428270  49.4515180
  18.0573750  74.0572420  48.4312540  29.7711430  76.2582340  59.9718050
  29.0392550  76.7669150  60.3208150  29.3735770  75.4412320  59.6706830
  26.2088820  72.9336540  58.3770540  26.2124880  72.4926490  57.5275080
  27.1039940  73.2553870  58.4842360  22.0591200  72.8163030  57.3364750
  21.7191250  73.2938260  58.0931800  21.2968520  72.3628150  56.9765850
  26.2708970  73.9348620  51.3677300  26.3921790  73.8935100  52.3163120
  25.8857480  74.7972770  51.2124030  30.2337340  71.7116020  59.3840990
  30.2510080  72.1624670  60.2282840  29.9852920  70.8121660  59.5974430
  25.2830470  76.2449760  50.7660600  24.7147370  75.7968010  50.1396510
  25.9919470  76.6042540  50.2325750  33.6608090  69.1248200  65.2227370
  33.9853860  68.3937860  65.7485350  33.6964600  68.8061840  64.3208360
  20.3599650  80.1461780  64.6427330  19.9754440  79.5055450  65.2410290
  20.6711840  80.8497900  65.2122060  26.5096790  76.9938320  60.1235950
  26.8766920  76.5196890  60.8697290  26.3201850  77.8679890  60.4644290
  19.3737280  71.7382010  56.2529420  19.0884200  71.3737680  57.0908040
  19.3116140  71.0062470  55.6392560  24.2996160  76.0346960  62.4420160
  23.9953230  76.9138940  62.6670520  25.2542620  76.0946750  62.4777600
  22.8277950  80.2407950  53.0387010  22.0540210  79.7005570  52.8785730
  23.5572580  79.7214560  52.7004770  33.5865930  79.2373310  58.8313400
  34.3065050  79.7328600  58.4409510  33.3847750  78.5591200  58.1867270
  29.0475870  70.6311270  52.9742790  28.2340480  70.1324440  52.8988100
  28.8537820  71.4709520  52.5579140  28.9684730  79.3082370  64.7182400
  28.9022040  78.3878040  64.4639990  28.3389870  79.4057810  65.4327040
  31.7624260  75.0030920  51.2704950  32.6503880  75.3148150  51.0956290
  31.7329350  74.1303170  50.8785530  22.8715350  79.9088330  56.6765820
  23.3894020  79.1056590  56.6222710  22.4199370  79.8467470  57.5182650
  27.7584850  81.1754610  51.9493120  28.1000550  81.9196840  51.4536440
  26.9297560  81.4885730  52.3117950  20.3559890  76.8749700  63.5891520
  19.9974830  77.5403550  64.1764860  20.0614450  76.0433250  63.9604140
  23.5573010  77.3333940  66.4731070  23.2573150  77.4791120  65.5758890
  24.3284250  76.7739230  66.3804460  28.9001460  82.1302940  64.4686200
  28.9146000  81.1983900  64.2505110  28.1926560  82.2162700  65.1075970
  34.0338530  76.3142760  50.7384810  33.9502250  76.7456980  49.8881250
  34.7532720  76.7741110  51.1711630  35.1112670  78.7710280  63.8154780
  34.3860860  79.3639060  63.6184170  35.6388130  78.7633820  63.0168150
  35.0625780  83.1685020  53.4666940  34.4201940  82.5140640  53.7410660
  34.6756440  83.5740110  52.6907610  30.6412260  80.4970450  57.3138630
  30.9936080  79.8998580  56.6540000  29.7574590  80.1714680  57.4846880
  26.7275540  81.2568140  54.7209040  27.4146670  81.8037350  55.1016630
  25.9407960  81.8008870  54.7558650  18.8667940  76.8740960  50.2126120
  19.7362790  77.1565760  50.4962040  18.3758260  77.6876830  50.0974930
  26.0302750  78.2614170  54.3334400  26.4865530  79.0719420  54.5594590
  25.6790960  77.9437310  55.1652890  28.3335360  83.7720510  61.5626700
  28.9777580  83.9779890  62.2400120  28.6964800  83.0108910  61.1097550
  21.9314530  68.6051820  54.8056920  21.8029160  68.5969720  55.7541840
  21.1076550  68.9434910  54.4547930  29.6067440  81.7752860  60.2804150
  30.2489670  81.0746020  60.3936320  30.1316790  82.5551300  60.1001040
  33.4523160  82.0601480  50.0043290  33.2260740  81.3431920  50.5967930
  33.0619360  81.8113920  49.1665040  31.3805060  82.5747760  63.4840210
  31.7161300  83.1614450  64.1618130  30.4605400  82.4440470  63.7138000
  19.2339190  86.0868340  50.7787750  19.5936830  86.6857680  50.1245020
  19.0931530  86.6328230  51.5522780  18.9308460  70.3642940  64.2663620
  18.2166980  70.5639860  64.8716230  19.3503500  69.5882510  64.6378420
  33.0339410  79.9773420  51.6657450  32.7461110  80.4386110  52.4535330
  33.8291580  79.5171190  51.9341670  19.2181050  84.3523200  65.2530150
  19.3272170  83.4117940  65.1125540  18.5661610  84.6177950  64.6043880
  27.2093640  82.6239090  66.6528270  26.8890510  81.9048330  67.1973960
  26.5352000  83.2994160  66.7264330  25.2507810  83.4699540  51.5961420
  25.2417910  84.2029230  50.9805930  24.3306170  83.2231120  51.6888380
  20.8514450  78.6914430  52.3408180  20.2442400  79.4313330  52.3503480
  21.3263800  78.7813790  51.5146380  30.4247240  72.8565250  62.0165070
  30.7928060  72.0360460  62.3444640  29.5645440  72.9167140  62.4320720
  33.7909270  71.8122190  52.8252630  33.1622430  71.9167860  52.1110860
  33.2961190  72.0318970  53.6146510  28.2367410  83.5327780  50.2586610
  28.3379390  83.3291770  49.3288590  27.3369150  83.2786060  50.4634390
  25.7593300  74.0908140  54.2410510  25.0509450  74.5594480  54.6824120
  26.0437780  73.4330150  54.8755700  27.3849230  75.5104840  62.2403040
  27.8834480  75.9850660  62.9054890  27.5272180  74.5868360  62.4473070
  29.7908730  70.8158800  55.6806300  29.6676510  70.8344930  54.7315810
  30.7393290  70.8637740  55.8004700  26.8785520  86.0514100  54.9534280
  27.1327020  86.0135490  54.0313650  25.9298000  85.9247430  54.9462530
  23.9628320  72.3993220  51.6161220  24.8118850  72.8363370  51.5501410
  23.5959590  72.7113480  52.4433280  34.5916090  71.7272800  63.0831430
  34.0889690  72.4678200  63.4225240  35.4072750  72.1156800  62.7668220
  32.8838100  76.9705980  56.5292790  31.9428240  76.9856210  56.7040480
  33.1982170  76.1841940  56.9753090  22.8619740  78.6525580  50.0896750
  23.6283010  78.5406940  50.6522180  22.9394430  77.9563550  49.4373520
  21.5566500  76.0850650  50.7729640  21.6370090  75.1378160  50.8847040
  22.4486250  76.4157530  50.8790300  34.8863680  84.1414830  58.2047050
  35.0111100  84.9646000  58.6770860  35.7529240  83.9305560  57.8571200
  22.3581210  86.2346040  57.8764180  23.0943690  85.6861500  58.1472750
  22.7422130  87.1002050  57.7370170  19.2426690  82.3019610  53.7505690
  18.3166470  82.5440750  53.7411100  19.7083120  83.1293870  53.6290440
  21.3639490  85.4192110  67.0649760  22.1652220  85.7404160  67.4785160
  20.8491310  85.0587690  67.7869670  25.4683520  85.4076350  49.6989750
  26.2612130  85.6965180  49.2471540  24.9487870  84.9768520  49.0202230
  30.2004120  81.5271980  67.0125170  29.5942280  81.5503580  66.2720920
  29.8958230  80.7955020  67.5492420  31.6304490  85.2552270  65.6234580
  32.5826240  85.1710290  65.5734820  31.4832710  85.9193980  66.2968370
  34.5213690  84.6346480  51.1226490  34.2355200  84.2211620  50.3080670
  34.3233240  85.5634190  51.0027010  19.0837300  77.9065570  66.0085810
  19.5876320  77.3272850  66.5802040  18.3444720  78.1905800  66.5462180
  25.9860920  80.6279760  49.5632100  25.8811560  80.0132110  50.2893480
  25.8185140  80.1045650  48.7795110  26.1375240  79.3136560  65.5421330
  25.3720910  79.8821560  65.4576000  26.3191200  79.0212770  64.6489560
  29.2263650  79.6899790  50.1674090  28.6773750  80.1369090  50.8116830
  29.8482910  79.1849040  50.6911760  33.2798590  81.0441890  66.0996350
  34.0208060  81.3817650  65.5963810  32.5171270  81.2133950  65.5466120
  21.1160380  76.0495160  66.9035880  21.1565720  75.7509030  67.8121110
  21.9705880  76.4502770  66.7443400  24.8938770  78.6490710  52.0639390
  25.3155190  78.4830580  52.9070780  25.0189610  77.8390940  51.5694530
  23.0566190  74.6287260  64.8710370  22.5262650  74.1378210  64.2433710
  23.7254260  75.0571460  64.3368300  27.4066410  77.6728320  49.3116490
  27.9272070  76.9577340  48.9457640  28.0534810  78.3114190  49.6117000
  31.9544250  79.0956720  64.6351560  32.3685270  79.2501800  65.4841980
  31.0195250  79.2211940  64.7977340  32.4266420  76.4352880  66.6390710
  33.0087190  75.6805200  66.5511190  32.6028190  76.9660320  65.8622190
  23.5438490  71.5949630  64.9507660  23.4495360  70.9770380  64.2258530
  22.9635880  72.3215920  64.7237570  26.3099930  70.1522870  61.9835050
  25.8617230  70.1747130  61.1380600  25.6765130  69.7541890  62.5805350
  26.7159480  79.0477200  62.6047490  27.1347590  79.8909930  62.4323730
  25.7968110  79.1849240  62.3754270  29.0523380  76.7793380  63.9885330
  29.1719590  76.1834520  64.7280170  29.9117380  76.8163070  63.5686630
  31.3911280  77.3330570  62.5647840  30.8646500  77.8573190  61.9612980
  31.7342620  77.9657960  63.1957570  23.7897670  74.7223940  49.0097550
  23.5886730  73.8591300  49.3710890  23.6189720  74.6357300  48.0719150
  24.5666900  85.3530210  63.7205220  24.0287990  86.0776270  63.4013920
  24.8200860  84.8760550  62.9302560  25.8192150  73.3214730  65.2461150
  26.4091840  73.0130580  65.9338970  25.0012390  72.8494480  65.4021050
  30.6385580  72.9380540  65.4794170  29.9501100  72.2762080  65.4144160
  31.3591600  72.4918810  65.9242630  31.2685980  69.5332170  51.5384430
  31.5488270  68.6900070  51.8943850  30.4951710  69.7655280  52.0523180
  22.5880470  71.8224560  48.9975430  22.8906370  71.8291990  48.0894580
  23.3275060  71.4722420  49.4943090  27.4229110  86.5881420  63.9791870
  27.3487810  87.4916560  64.2864240  26.5207950  86.2693320  63.9513940
  25.8065400  70.7659180  49.9831630  25.4587400  70.0883170  49.4034080
  26.0078170  70.3048690  50.7975020  27.9714440  85.7539930  51.6018230
  28.8665230  86.0924900  51.6236990  28.0032070  85.0319340  50.9742510
  21.6110600  81.1266980  49.8305230  22.0485470  81.6696650  50.4862810
  22.0958330  80.3013930  49.8401570  18.8256400  83.9156010  57.2825490
  19.1559410  83.0477070  57.0504130  19.2547400  84.1214530  58.1130450
  23.4218320  82.2465020  54.9427460  23.1213860  82.1229990  55.8431370
  23.3155810  81.3873610  54.5343190  19.3146610  84.7826600  60.0207120
  18.8777600  84.9627400  60.8531270  19.8824290  85.5401220  59.8788840
  34.9508790  84.2843600  64.3084430  34.3510780  84.3436160  63.5648350
  35.0802690  83.3448580  64.4381280  36.1910240  82.0261420  49.6454140
  35.3603200  82.0938070  50.1161370  36.3682070  82.9165540  49.3421000
  35.6466700  78.7708900  52.1488340  36.4085610  79.3405550  52.2548030
  35.6621070  78.2036100  52.9196650  19.1471040  77.2946830  56.3796000
  18.4919880  77.0258470  55.7355700  19.9848990  77.1851310  55.9297980
  36.6526670  79.6259000  56.9930270  37.0235500  78.8426320  56.5866240
  37.2928600  80.3148100  56.8147570  33.6360430  81.0095580  62.4060590
  32.8220270  81.4392740  62.6686380  34.0434630  81.6213990  61.7929640
  35.6985870  79.0643270  49.3060860  35.9734710  79.9722150  49.1780080
  35.5096610  79.0005800  50.2422850  32.0961480  72.0888120  50.6014490
  32.5146360  71.9019100  49.7611150  31.7897540  71.2367170  50.9117420
  35.5951210  77.0012260  54.2990290  35.2194810  76.2340190  53.8671580
  34.8654330  77.3834960  54.7865220  20.1846970  77.6799400  60.9199340
  20.5520010  77.5926800  61.7995360  19.6157790  76.9165950  60.8206200
  34.9850830  76.1483780  63.9329810  34.7536920  75.9196530  63.0327760
  35.2455380  77.0683330  63.8874700  19.7362970  74.5908490  64.8257760
  18.8419020  74.5575250  65.1651470  20.2760520  74.7895280  65.5909010
  33.4238900  71.3740210  66.7109510  34.3009080  71.3823610  67.0943510
  33.4359740  70.6371050  66.1001860  18.3609120  74.5045760  52.3221330
  17.4573200  74.7675960  52.1472990  18.8449740  74.7756930  51.5421290
  34.8702170  75.2269750  57.5997530  35.3939650  74.7332400  56.9687700
  35.4561590  75.3620110  58.3445100  35.0491890  75.3109620  61.1217080
  34.0994600  75.2773160  61.2362070  35.2304900  76.2209730  60.8866850
  20.9036330  73.5611300  50.2315710  21.6128030  73.1394520  49.7462990
  20.1876270  73.6286530  49.5999060  20.5510490  69.6150630  49.2718360
  21.2738620  70.1559570  49.5899580  20.8235010  69.3414050  48.3959900
  34.3602140  74.4843100  53.5389940  34.8561260  74.2513970  54.3238820
  34.1618210  73.6454940  53.1227580  20.2402680  68.8656820  59.1740980
  20.8878870  68.3154200  58.7336140  20.6604520  69.1199970  59.9956790
  35.7889300  73.1204050  56.0727620  35.6788580  72.9660090  57.0109890
  36.5496890  72.5924990  55.8303030  34.1355020  69.0598180  62.5310620
  34.7727240  69.6732320  62.8969810  34.2829910  69.0958840  61.5859850
  36.6779570  70.9511970  49.3133760  37.6028880  70.8193150  49.1052050
  36.6555360  71.0304790  50.2670210  36.7518060  71.7222630  51.9390470
  35.9569560  71.6567750  52.4683380  36.9561340  72.6573270  51.9275820
  33.6936480  85.7614180  55.9328860  34.2895550  85.4398750  55.2563280
  33.9514630  85.2886000  56.7242130  19.9934680  69.0212490  61.9166300
  19.6449500  69.4776310  62.6824480  19.6622380  68.1269620  61.9988730
  21.5999050  82.1932090  66.0819490  21.5568680  81.8225000  66.9633950
  21.7310060  83.1309660  66.2221310  25.3005080  83.7491680  61.6829210
  25.0596440  84.0166240  60.7959730  26.2407720  83.9197410  61.7380070
  27.5059500  70.2124370  65.4385720  27.4448390  70.8046200  66.1881130
  28.4459880  70.1050330  65.2935980  30.1434060  69.8694430  65.0778010
  30.7574470  70.1873720  64.4159090  30.6883620  69.3843020  65.6973870
  36.5609240  85.7686060  62.4839850  36.0667520  86.1654930  61.7666980
  35.9522530  85.1435270  62.8777130  20.6655320  68.5488690  65.1917070
  21.2138310  68.3676740  64.4283180  20.7310630  67.7582800  65.7273380
  21.4387080  85.1394340  63.2017270  20.8447400  85.0079040  63.9407310
  21.4310920  84.3032480  62.7359370  30.8842100  68.4326570  61.4047300
  30.0101940  68.7661680  61.2020230  30.7752850  67.9599750  62.2299170
  31.7914080  70.6397440  62.7889020  31.4627440  69.8249200  62.4090750
  32.7396380  70.5967250  62.6654710  34.2448690  86.4109480  59.7626590
  33.7851660  87.1625290  59.3884610  33.6161150  85.6915950  59.7041390
  21.0699310  82.5052720  62.1525310  20.3433370  81.8858010  62.0851260
  21.1308460  82.8993330  61.2823390  24.6744410  84.7197720  58.9374720
  25.1909430  84.1085080  58.4122980  25.3241790  85.2226500  59.4285730
  27.4139910  85.6106210  59.7643700  27.7017720  85.3560510  58.8876710
  27.9263130  85.0583570  60.3549270  28.6316920  69.3496410  60.3440210
  27.8488710  69.8241910  60.6236970  28.3379850  68.4451240  60.2353390
  33.1837990  70.0519510  58.3889300  33.6246080  69.9964610  57.5410900
  32.9145580  70.9677520  58.4599480  35.0476560  69.6834750  56.3998120
  34.9864960  68.7395970  56.2529140  35.8268590  69.7914840  56.9451580
  19.3529310  85.8227110  55.3622070  19.1851350  85.1897790  56.0603960
  18.4863820  86.0286510  55.0116260  19.9757330  69.6543890  52.8653930
  20.7336690  69.7672770  52.2917960  19.5134500  70.4913090  52.8197360
  26.5171140  71.7683160  55.8556240  25.7045650  71.3940050  55.5152120
  27.0212780  71.0128240  56.1577430  31.0196120  68.4325610  57.0939310
  31.6225490  69.0045820  57.5687830  30.2789110  68.9965050  56.8713210
  34.1630720  68.8347170  52.3679590  34.3581350  69.7330620  52.6347020
  33.3760590  68.6034250  52.8612540  20.9592010  84.5160340  52.8072210
  20.4339630  84.8968370  52.1034170  20.8836590  85.1411110  53.5281920
  22.3482480  70.1807940  51.4055900  22.8775240  69.3937740  51.2763850
  22.9810800  70.8599130  51.6391430  24.5420320  69.9183080  54.4601290
  23.9123060  69.2170390  54.6271420  24.0025460  70.6787210  54.2434450
  27.4812270  86.5322310  67.1311900  28.4079580  86.2966580  67.1747860
  27.4662700  87.3594310  66.6497930  35.7157330  86.0747880  54.1286150
  35.8909520  85.3885620  53.4847070  35.0178900  86.5994930  53.7362820
  24.6675880  69.1967060  66.8953780  24.3860150  69.7000660  66.1314600
  25.0495580  68.3988810  66.5295910  23.5584980  86.4642720  51.6821460
  24.2903800  86.1802000  51.1345350  23.8178650  86.2256000  52.5720840
  22.7199770  82.5807450  51.6867790  22.0908650  83.0492550  52.2353620
  22.8347600  81.7356670  52.1213980  31.2691340  68.6120640  67.4734250
  31.1556790  68.9315250  68.3685770  32.0861080  69.0133150  67.1771530
  34.0489830  85.7592170  66.9552940  34.8415150  85.2641400  66.7478900
  34.3422980  86.4382310  67.5628550  30.1749490  76.6313110  37.8368990
  30.0943540  75.7167720  37.5660700  29.7613910  77.1280180  37.1308700
  28.3067530  78.4092130  39.7178260  27.5309630  77.9292570  40.0076830
  28.9580460  77.7297780  39.5434420  22.3233360  78.7211940  40.5954020
  21.4918240  78.4660650  40.9950530  22.9314340  78.7922710  41.3311940
  32.3274960  82.8152320  38.4977390  31.8656490  82.0439560  38.8264560
  33.1400510  82.8418390  39.0029840  22.3034620  82.7552030  40.7912040
  22.6062660  81.8649770  40.6122260  23.0478210  83.3122250  40.5634290
  20.7325310  73.6813830  34.3796410  19.8442010  74.0229800  34.2776290
  21.0166500  73.4814150  33.4877240  18.6958320  76.2819480  40.2636110
  19.2674430  75.5141680  40.2639750  18.6959860  76.5808240  39.3542720
  28.5538270  85.1010330  38.1181380  27.9349710  85.5567830  37.5475820
  29.4090050  85.2561790  37.7171080  27.7476520  81.0849320  39.7248420
  27.6784800  80.1439260  39.5637550  28.5096380  81.1750730  40.2970990
  19.9383190  71.6903840  42.0505040  19.7586030  70.7929590  42.3307800
  19.5363270  72.2375710  42.7251990  28.7781690  73.8919700  39.9517350
  29.1546510  73.0191580  39.8391020  28.6801200  74.2278400  39.0607790
  22.9086700  72.2645330  35.4134790  23.0153450  73.1649060  35.7203550
  21.9979060  72.2163300  35.1229440  32.5605810  71.3870140  36.8845690
  33.3815430  70.8966710  36.9271170  32.5939890  71.9767800  37.6377530
  20.5569860  74.1864340  40.6587380  21.2379970  74.4502710  41.2774780
  20.2417910  73.3465210  40.9925390  24.7494430  75.2331700  39.7459970
  25.2572650  75.7312670  40.3864990  25.2807670  74.4566900  39.5699330
  36.8505360  73.4036890  43.4489320  36.1457530  73.7918600  42.9304430
  37.1163280  74.0987180  44.0510250  23.0330530  69.8730260  44.0123390
  23.0348970  70.3902650  43.2069290  22.2034840  69.3960440  43.9893320
  29.4201620  79.9849570  35.5113290  28.8018890  80.4499020  34.9476010
  29.9324870  80.6777050  35.9282800  24.2833380  79.5125440  42.1896890
  23.9502760  80.1394360  42.8317960  24.4600060  80.0387320  41.4098560
  32.7967290  73.3270520  39.6573230  32.0922860  73.6155410  40.2376340
  33.1579450  74.1370630  39.2972790  22.7145860  71.5840220  42.0193840
  23.0562670  72.4282270  41.7247710  21.7761670  71.7323960  42.1359180
  23.4952480  81.4806240  44.0046070  24.1126480  82.1557320  43.7230520
  22.6345600  81.8894220  43.9133570  18.7884820  80.6706100  32.8852920
  18.4112800  81.1593200  32.1537820  19.0457890  81.3431380  33.5159450
  34.4130070  82.9445650  41.9200710  33.7293590  83.6144760  41.9117380
  34.9524360  83.1426300  41.1545570  35.8654210  72.7725310  40.0482440
  34.9179120  72.8064290  40.1797870  36.1904200  73.5864260  40.4331800
  26.3973750  69.0722490  38.3438430  26.7048730  68.5169380  37.6273930
  25.4674450  69.2066950  38.1611420  31.9488810  84.7889780  40.6345890
  31.9615970  84.3852070  39.7668150  31.3964030  85.5637070  40.5307320
  33.2434230  81.5106000  35.7236060  33.1330560  80.5680330  35.8485480
  33.2402480  81.8721640  36.6098820  31.3474250  79.6919620  41.9628500
  31.7643040  79.4779730  41.1281960  32.0714070  79.9492410  42.5337120
  28.7854510  77.1371320  35.0798550  27.8583790  77.0708700  35.3087020
  28.9379330  78.0751450  34.9653790  28.7723590  73.4088320  32.0765710
  27.8327260  73.5702280  32.1618170  29.0906850  74.1274000  31.5301700
  35.2936350  78.0906840  42.0544740  34.4654980  78.1599930  41.5794870
  35.8886830  78.6761150  41.5860570  32.8151800  78.6991620  35.5833800
  32.1964220  78.3611170  34.9360100  32.7976250  78.0551380  36.2912990
  32.2578360  74.8776160  42.9999610  31.8449540  75.7029870  43.2539600
  31.5254310  74.2921200  42.8075970  24.3911150  77.6636060  37.8618280
  23.9868150  76.9513310  37.3664180  24.4774270  77.3189300  38.7506320
  24.8592850  81.3503620  40.0257490  24.5621140  80.7449090  39.3465270
  25.8092670  81.3880930  39.9146850  23.1039770  74.4379270  41.6417320
  23.6554360  74.5474610  40.8670570  23.6183280  74.8116870  42.3572550
  32.9478460  84.9235490  43.6880590  32.4709020  85.7307680  43.4953200
  32.2640250  84.2713820  43.8406800  23.9511280  81.0885310  46.6765290
  23.0539810  81.3125280  46.9238690  23.9764150  81.2120250  45.7276690
  30.9916500  77.9378430  32.5906550  31.4309780  77.1000860  32.4444370
  31.7044920  78.5707830  32.6770690  22.7782500  77.9598630  45.2522660
  22.6390270  78.8321430  45.6210060  21.8963860  77.6171440  45.1070600
  29.1011880  82.8774500  36.5587790  29.5407790  83.6198830  36.1443180
  29.0398770  83.1201070  37.4826750  24.5762850  83.9020330  47.4607810
  24.5478280  84.3063280  46.5936240  24.4127820  82.9730690  47.2979410
  34.5733640  69.1921240  30.9047590  34.2606300  69.2848070  31.8046660
  35.3346110  69.7702270  30.8545020  21.0915780  76.5581040  35.3624930
  20.9713380  77.2843130  34.7506200  20.7816670  75.7883950  34.8852840
  36.5277670  84.6847430  48.7571980  37.0037390  85.1630320  49.4361060
  37.1484830  84.6164920  48.0317480  18.7301150  79.7296180  41.1693570
  18.8081570  79.8644950  40.2249290  19.3442830  79.0212070  41.3621690
  19.9748780  81.4296370  37.5799750  19.5676860  81.5710960  36.7253350
  20.8661790  81.1456530  37.3770960  35.9310920  81.8760280  45.9171990
  36.0573980  81.6372160  44.9989170  35.9732300  81.0444820  46.3894070
  29.7927660  85.5788280  44.4866800  30.3072330  85.4896290  45.2889230
  28.9496740  85.9247980  44.7794710  31.7682060  85.8643620  33.9150800
  31.6083200  85.5746560  34.8132630  31.6028770  85.0883750  33.3796030
  24.2470440  85.6442150  35.6922420  24.0712920  84.7277690  35.4790220
  23.3926180  86.0029440  35.9320220  31.4708190  83.3731180  32.4748800
  30.7773350  83.3708470  31.8151080  32.2131050  82.9490500  32.0442970
  31.0358120  84.9993890  36.5497290  31.4915070  84.2183270  36.8635910
  31.3750640  85.7100710  37.0938470  35.7834930  73.9292740  46.8821730
  35.1679200  74.4372410  46.3537190  35.4631350  73.0291070  46.8247670
  18.7860670  80.7710350  43.7088030  18.9491710  80.3015710  42.8907400
  19.2513120  80.2633910  44.3736870  23.5579440  69.9016110  38.7448600
  23.1147590  70.6825650  38.4133120  24.1164430  70.2246000  39.4519540
  27.8449250  72.7684630  44.3483920  27.3828620  72.9767650  45.1603860
  27.4427360  71.9543980  44.0454590  32.8453760  73.9893580  45.4780580
  31.9947350  73.6899330  45.7989650  32.6855550  74.2335590  44.5664400
  29.9403470  75.4895330  47.5779370  30.2656880  74.6559080  47.2381600
  30.7283800  76.0123850  47.7257700  26.6738260  69.5226810  33.6254430
  26.0492440  69.5186680  34.3507740  26.5868380  68.6557770  33.2290400
  25.5955340  70.4463440  40.6038200  25.8927670  71.3526270  40.5230220
  26.1440900  69.9582220  39.9897770  23.3493660  75.0249680  36.4729850
  23.1234580  74.8086850  37.3776470  22.5686190  75.4578140  36.1275820
  30.5791420  75.0313050  35.0720500  29.9800310  75.7548850  34.8884120
  31.1271030  74.9689830  34.2896950  25.7892870  75.9235260  47.1390120
  25.6936470  74.9829990  46.9890520  26.6324850  76.1450330  46.7438190
  29.1856290  73.6676590  37.1023780  29.5785860  73.9848790  36.2892470
  29.5473140  72.7888470  37.2168300  20.9203410  72.3348930  45.2923900
  20.5266800  73.1824140  45.4996680  20.2321810  71.6975300  45.4832540
  27.4948460  72.4183900  48.3620640  26.8046780  72.2256100  48.9966730
  28.2380760  72.7018540  48.8944940  18.2220460  70.2577390  39.3253980
  17.9333510  70.8280250  40.0378960  18.9666220  69.7781840  39.6885210
  18.4090690  74.1997510  30.5356700  18.3265360  75.1428270  30.6771690
  18.0573750  74.0572420  29.6569050  29.7711430  76.2582340  41.1974560
  29.0392550  76.7669150  41.5464660  29.3735770  75.4412320  40.8963340
  26.2088820  72.9336540  39.6027050  26.2124880  72.4926490  38.7531590
  27.1039940  73.2553870  39.7098870  22.0591200  72.8163030  38.5621260
  21.7191250  73.2938260  39.3188310  21.2968520  72.3628150  38.2022360
  26.2708970  73.9348620  32.5933810  26.3921790  73.8935100  33.5419630
  25.8857480  74.7972770  32.4380540  30.2337340  71.7116020  40.6097500
  30.2510080  72.1624670  41.4539350  29.9852920  70.8121660  40.8230940
  25.2830470  76.2449760  31.9917110  24.7147370  75.7968010  31.3653020
  25.9919470  76.6042540  31.4582260  33.6608090  69.1248200  46.4483880
  33.9853860  68.3937860  46.9741860  33.6964600  68.8061840  45.5464870
  20.3599650  80.1461780  45.8683840  19.9754440  79.5055450  46.4666800
  20.6711840  80.8497900  46.4378570  26.5096790  76.9938320  41.3492460
  26.8766920  76.5196890  42.0953800  26.3201850  77.8679890  41.6900800
  19.3737280  71.7382010  37.4785930  19.0884200  71.3737680  38.3164550
  19.3116140  71.0062470  36.8649070  24.2996160  76.0346960  43.6676670
  23.9953230  76.9138940  43.8927030  25.2542620  76.0946750  43.7034110
  22.8277950  80.2407950  34.2643520  22.0540210  79.7005570  34.1042240
  23.5572580  79.7214560  33.9261280  33.5865930  79.2373310  40.0569910
  34.3065050  79.7328600  39.6666020  33.3847750  78.5591200  39.4123780
  29.0475870  70.6311270  34.1999300  28.2340480  70.1324440  34.1244610
  28.8537820  71.4709520  33.7835650  28.9684730  79.3082370  45.9438910
  28.9022040  78.3878040  45.6896500  28.3389870  79.4057810  46.6583550
  31.7624260  75.0030920  32.4961460  32.6503880  75.3148150  32.3212800
  31.7329350  74.1303170  32.1042040  22.8715350  79.9088330  37.9022330
  23.3894020  79.1056590  37.8479220  22.4199370  79.8467470  38.7439160
  27.7584850  81.1754610  33.1749630  28.1000550  81.9196840  32.6792950
  26.9297560  81.4885730  33.5374460  20.3559890  76.8749700  44.8148030
  19.9974830  77.5403550  45.4021370  20.0614450  76.0433250  45.1860650
  23.5573010  77.3333940  47.6987580  23.2573150  77.4791120  46.8015400
  24.3284250  76.7739230  47.6060970  28.9001460  82.1302940  45.6942710
  28.9146000  81.1983900  45.4761620  28.1926560  82.2162700  46.3332480
  34.0338530  76.3142760  31.9641320  33.9502250  76.7456980  31.1137760
  34.7532720  76.7741110  32.3968140  35.1112670  78.7710280  45.0411290
  34.3860860  79.3639060  44.8440680  35.6388130  78.7633820  44.2424660
  35.0625780  83.1685020  34.6923450  34.4201940  82.5140640  34.9667170
  34.6756440  83.5740110  33.9164120  30.6412260  80.4970450  38.5395140
  30.9936080  79.8998580  37.8796510  29.7574590  80.1714680  38.7103390
  26.7275540  81.2568140  35.9465550  27.4146670  81.8037350  36.3273140
  25.9407960  81.8008870  35.9815160  18.8667940  76.8740960  31.4382630
  19.7362790  77.1565760  31.7218550  18.3758260  77.6876830  31.3231440
  26.0302750  78.2614170  35.5590910  26.4865530  79.0719420  35.7851100
  25.6790960  77.9437310  36.3909400  28.3335360  83.7720510  42.7883210
  28.9777580  83.9779890  43.4656630  28.6964800  83.0108910  42.3354060
  21.9314530  68.6051820  36.0313430  21.8029160  68.5969720  36.9798350
  21.1076550  68.9434910  35.6804440  29.6067440  81.7752860  41.5060660
  30.2489670  81.0746020  41.6192830  30.1316790  82.5551300  41.3257550
  33.4523160  82.0601480  31.2299800  33.2260740  81.3431920  31.8224440
  33.0619360  81.8113920  30.3921550  31.3805060  82.5747760  44.7096720
  31.7161300  83.1614450  45.3874640  30.4605400  82.4440470  44.9394510
  19.2339190  86.0868340  32.0044260  19.5936830  86.6857680  31.3501530
  19.0931530  86.6328230  32.7779290  18.9308460  70.3642940  45.4920130
  18.2166980  70.5639860  46.0972740  19.3503500  69.5882510  45.8634930
  33.0339410  79.9773420  32.8913960  32.7461110  80.4386110  33.6791840
  33.8291580  79.5171190  33.1598180  19.2181050  84.3523200  46.4786660
  19.3272170  83.4117940  46.3382050  18.5661610  84.6177950  45.8300390
  27.2093640  82.6239090  47.8784780  26.8890510  81.9048330  48.4230470
  26.5352000  83.2994160  47.9520840  25.2507810  83.4699540  32.8217930
  25.2417910  84.2029230  32.2062440  24.3306170  83.2231120  32.9144890
  20.8514450  78.6914430  33.5664690  20.2442400  79.4313330  33.5759990
  21.3263800  78.7813790  32.7402890  30.4247240  72.8565250  43.2421580
  30.7928060  72.0360460  43.5701150  29.5645440  72.9167140  43.6577230
  33.7909270  71.8122190  34.0509140  33.1622430  71.9167860  33.3367370
  33.2961190  72.0318970  34.8403020  28.2367410  83.5327780  31.4843120
  28.3379390  83.3291770  30.5545100  27.3369150  83.2786060  31.6890900
  25.7593300  74.0908140  35.4667020  25.0509450  74.5594480  35.9080630
  26.0437780  73.4330150  36.1012210  27.3849230  75.5104840  43.4659550
  27.8834480  75.9850660  44.1311400  27.5272180  74.5868360  43.6729580
  29.7908730  70.8158800  36.9062810  29.6676510  70.8344930  35.9572320
  30.7393290  70.8637740  37.0261210  26.8785520  86.0514100  36.1790790
  27.1327020  86.0135490  35.2570160  25.9298000  85.9247430  36.1719040
  23.9628320  72.3993220  32.8417730  24.8118850  72.8363370  32.7757920
  23.5959590  72.7113480  33.6689790  34.5916090  71.7272800  44.3087940
  34.0889690  72.4678200  44.6481750  35.4072750  72.1156800  43.9924730
  32.8838100  76.9705980  37.7549300  31.9428240  76.9856210  37.9296990
  33.1982170  76.1841940  38.2009600  22.8619740  78.6525580  31.3153260
  23.6283010  78.5406940  31.8778690  22.9394430  77.9563550  30.6630030
  21.5566500  76.0850650  31.9986150  21.6370090  75.1378160  32.1103550
  22.4486250  76.4157530  32.1046810  34.8863680  84.1414830  39.4303560
  35.0111100  84.9646000  39.9027370  35.7529240  83.9305560  39.0827710
  22.3581210  86.2346040  39.1020690  23.0943690  85.6861500  39.3729260
  22.7422130  87.1002050  38.9626680  19.2426690  82.3019610  34.9762200
  18.3166470  82.5440750  34.9667610  19.7083120  83.1293870  34.8546950
  21.3639490  85.4192110  48.2906270  22.1652220  85.7404160  48.7041670
  20.8491310  85.0587690  49.0126180  25.4683520  85.4076350  30.9246260
  26.2612130  85.6965180  30.4728050  24.9487870  84.9768520  30.2458740
  30.2004120  81.5271980  48.2381680  29.5942280  81.5503580  47.4977430
  29.8958230  80.7955020  48.7748930  31.6304490  85.2552270  46.8491090
  32.5826240  85.1710290  46.7991330  31.4832710  85.9193980  47.5224880
  34.5213690  84.6346480  32.3483000  34.2355200  84.2211620  31.5337180
  34.3233240  85.5634190  32.2283520  19.0837300  77.9065570  47.2342320
  19.5876320  77.3272850  47.8058550  18.3444720  78.1905800  47.7718690
  25.9860920  80.6279760  30.7888610  25.8811560  80.0132110  31.5149990
  25.8185140  80.1045650  30.0051620  26.1375240  79.3136560  46.7677840
  25.3720910  79.8821560  46.6832510  26.3191200  79.0212770  45.8746070
  29.2263650  79.6899790  31.3930600  28.6773750  80.1369090  32.0373340
  29.8482910  79.1849040  31.9168270  33.2798590  81.0441890  47.3252860
  34.0208060  81.3817650  46.8220320  32.5171270  81.2133950  46.7722630
  21.1160380  76.0495160  48.1292390  21.1565720  75.7509030  49.0377620
  21.9705880  76.4502770  47.9699910  24.8938770  78.6490710  33.2895900
  25.3155190  78.4830580  34.1327290  25.0189610  77.8390940  32.7951040
  23.0566190  74.6287260  46.0966880  22.5262650  74.1378210  45.4690220
  23.7254260  75.0571460  45.5624810  27.4066410  77.6728320  30.5373000
  27.9272070  76.9577340  30.1714150  28.0534810  78.3114190  30.8373510
  31.9544250  79.0956720  45.8608070  32.3685270  79.2501800  46.7098490
  31.0195250  79.2211940  46.0233850  32.4266420  76.4352880  47.8647220
  33.0087190  75.6805200  47.7767700  32.6028190  76.9660320  47.0878700
  23.5438490  71.5949630  46.1764170  23.4495360  70.9770380  45.4515040
  22.9635880  72.3215920  45.9494080  26.3099930  70.1522870  43.2091560
  25.8617230  70.1747130  42.3637110  25.6765130  69.7541890  43.8061860
  26.7159480  79.0477200  43.8304000  27.1347590  79.8909930  43.6580240
  25.7968110  79.1849240  43.6010780  29.0523380  76.7793380  45.2141840
  29.1719590  76.1834520  45.9536680  29.9117380  76.8163070  44.7943140
  31.3911280  77.3330570  43.7904350  30.8646500  77.8573190  43.1869490
  31.7342620  77.9657960  44.4214080  23.7897670  74.7223940  30.2354060
  23.5886730  73.8591300  30.5967400  23.6189720  74.6357300  29.2975660
  24.5666900  85.3530210  44.9461730  24.0287990  86.0776270  44.6270430
  24.8200860  84.8760550  44.1559070  25.8192150  73.3214730  46.4717660
  26.4091840  73.0130580  47.1595480  25.0012390  72.8494480  46.6277560
  30.6385580  72.9380540  46.7050680  29.9501100  72.2762080  46.6400670
  31.3591600  72.4918810  47.1499140  31.2685980  69.5332170  32.7640940
  31.5488270  68.6900070  33.1200360  30.4951710  69.7655280  33.2779690
  22.5880470  71.8224560  30.2231940  22.8906370  71.8291990  29.3151090
  23.3275060  71.4722420  30.7199600  27.4229110  86.5881420  45.2048380
  27.3487810  87.4916560  45.5120750  26.5207950  86.2693320  45.1770450
  25.8065400  70.7659180  31.2088140  25.4587400  70.0883170  30.6290590
  26.0078170  70.3048690  32.0231530  27.9714440  85.7539930  32.8274740
  28.8665230  86.0924900  32.8493500  28.0032070  85.0319340  32.1999020
  21.6110600  81.1266980  31.0561740  22.0485470  81.6696650  31.7119320
  22.0958330  80.3013930  31.0658080  18.8256400  83.9156010  38.5082000
  19.1559410  83.0477070  38.2760640  19.2547400  84.1214530  39.3386960
  23.4218320  82.2465020  36.1683970  23.1213860  82.1229990  37.0687880
  23.3155810  81.3873610  35.7599700  19.3146610  84.7826600  41.2463630
  18.8777600  84.9627400  42.0787780  19.8824290  85.5401220  41.1045350
  34.9508790  84.2843600  45.5340940  34.3510780  84.3436160  44.7904860
  35.0802690  83.3448580  45.6637790  36.1910240  82.0261420  30.8710650
  35.3603200  82.0938070  31.3417880  36.3682070  82.9165540  30.5677510
  35.6466700  78.7708900  33.3744850  36.4085610  79.3405550  33.4804540
  35.6621070  78.2036100  34.1453160  19.1471040  77.2946830  37.6052510
  18.4919880  77.0258470  36.9612210  19.9848990  77.1851310  37.1554490
  36.6526670  79.6259000  38.2186780  37.0235500  78.8426320  37.8122750
  37.2928600  80.3148100  38.0404080  33.6360430  81.0095580  43.6317100
  32.8220270  81.4392740  43.8942890  34.0434630  81.6213990  43.0186150
  35.6985870  79.0643270  30.5317370  35.9734710  79.9722150  30.4036590
  35.5096610  79.0005800  31.4679360  32.0961480  72.0888120  31.8271000
  32.5146360  71.9019100  30.9867660  31.7897540  71.2367170  32.1373930
  35.5951210  77.0012260  35.5246800  35.2194810  76.2340190  35.0928090
  34.8654330  77.3834960  36.0121730  20.1846970  77.6799400  42.1455850
  20.5520010  77.5926800  43.0251870  19.6157790  76.9165950  42.0462710
  34.9850830  76.1483780  45.1586320  34.7536920  75.9196530  44.2584270
  35.2455380  77.0683330  45.1131210  19.7362970  74.5908490  46.0514270
  18.8419020  74.5575250  46.3907980  20.2760520  74.7895280  46.8165520
  33.4238900  71.3740210  47.9366020  34.3009080  71.3823610  48.3200020
  33.4359740  70.6371050  47.3258370  18.3609120  74.5045760  33.5477840
  17.4573200  74.7675960  33.3729500  18.8449740  74.7756930  32.7677800
  34.8702170  75.2269750  38.8254040  35.3939650  74.7332400  38.1944210
  35.4561590  75.3620110  39.5701610  35.0491890  75.3109620  42.3473590
  34.0994600  75.2773160  42.4618580  35.2304900  76.2209730  42.1123360
  20.9036330  73.5611300  31.4572220  21.6128030  73.1394520  30.9719500
  20.1876270  73.6286530  30.8255570  20.5510490  69.6150630  30.4974870
  21.2738620  70.1559570  30.8156090  20.8235010  69.3414050  29.6216410
  34.3602140  74.4843100  34.7646450  34.8561260  74.2513970  35.5495330
  34.1618210  73.6454940  34.3484090  20.2402680  68.8656820  40.3997490
  20.8878870  68.3154200  39.9592650  20.6604520  69.1199970  41.2213300
  35.7889300  73.1204050  37.2984130  35.6788580  72.9660090  38.2366400
  36.5496890  72.5924990  37.0559540  34.1355020  69.0598180  43.7567130
  34.7727240  69.6732320  44.1226320  34.2829910  69.0958840  42.8116360
  36.6779570  70.9511970  30.5390270  37.6028880  70.8193150  30.3308560
  36.6555360  71.0304790  31.4926720  36.7518060  71.7222630  33.1646980
  35.9569560  71.6567750  33.6939890  36.9561340  72.6573270  33.1532330
  33.6936480  85.7614180  37.1585370  34.2895550  85.4398750  36.4819790
  33.9514630  85.2886000  37.9498640  19.9934680  69.0212490  43.1422810
  19.6449500  69.4776310  43.9080990  19.6622380  68.1269620  43.2245240
  21.5999050  82.1932090  47.3076000  21.5568680  81.8225000  48.1890460
  21.7310060  83.1309660  47.4477820  25.3005080  83.7491680  42.9085720
  25.0596440  84.0166240  42.0216240  26.2407720  83.9197410  42.9636580
  27.5059500  70.2124370  46.6642230  27.4448390  70.8046200  47.4137640
  28.4459880  70.1050330  46.5192490  30.1434060  69.8694430  46.3034520
  30.7574470  70.1873720  45.6415600  30.6883620  69.3843020  46.9230380
  36.5609240  85.7686060  43.7096360  36.0667520  86.1654930  42.9923490
  35.9522530  85.1435270  44.1033640  20.6655320  68.5488690  46.4173580
  21.2138310  68.3676740  45.6539690  20.7310630  67.7582800  46.9529890
  21.4387080  85.1394340  44.4273780  20.8447400  85.0079040  45.1663820
  21.4310920  84.3032480  43.9615880  30.8842100  68.4326570  42.6303810
  30.0101940  68.7661680  42.4276740  30.7752850  67.9599750  43.4555680
  31.7914080  70.6397440  44.0145530  31.4627440  69.8249200  43.6347260
  32.7396380  70.5967250  43.8911220  34.2448690  86.4109480  40.9883100
  33.7851660  87.1625290  40.6141120  33.6161150  85.6915950  40.9297900
  21.0699310  82.5052720  43.3781820  20.3433370  81.8858010  43.3107770
  21.1308460  82.8993330  42.5079900  24.6744410  84.7197720  40.1631230
  25.1909430  84.1085080  39.6379490  25.3241790  85.2226500  40.6542240
  27.4139910  85.6106210  40.9900210  27.7017720  85.3560510  40.1133220
  27.9263130  85.0583570  41.5805780  28.6316920  69.3496410  41.5696720
  27.8488710  69.8241910  41.8493480  28.3379850  68.4451240  41.4609900
  33.1837990  70.0519510  39.6145810  33.6246080  69.9964610  38.7667410
  32.9145580  70.9677520  39.6855990  35.0476560  69.6834750  37.6254630
  34.9864960  68.7395970  37.4785650  35.8268590  69.7914840  38.1708090
  19.3529310  85.8227110  36.5878580  19.1851350  85.1897790  37.2860470
  18.4863820  86.0286510  36.2372770  19.9757330  69.6543890  34.0910440
  20.7336690  69.7672770  33.5174470  19.5134500  70.4913090  34.0453870
  26.5171140  71.7683160  37.0812750  25.7045650  71.3940050  36.7408630
  27.0212780  71.0128240  37.3833940  31.0196120  68.4325610  38.3195820
  31.6225490  69.0045820  38.7944340  30.2789110  68.9965050  38.0969720
  34.1630720  68.8347170  33.5936100  34.3581350  69.7330620  33.8603530
  33.3760590  68.6034250  34.0869050  20.9592010  84.5160340  34.0328720
  20.4339630  84.8968370  33.3290680  20.8836590  85.1411110  34.7538430
  22.3482480  70.1807940  32.6312410  22.8775240  69.3937740  32.5020360
  22.9810800  70.8599130  32.8647940  24.5420320  69.9183080  35.6857800
  23.9123060  69.2170390  35.8527930  24.0025460  70.6787210  35.4690960
  27.4812270  86.5322310  48.3568410  28.4079580  86.2966580  48.4004370
  27.4662700  87.3594310  47.8754440  35.7157330  86.0747880  35.3542660
  35.8909520  85.3885620  34.7103580  35.0178900  86.5994930  34.9619330
  24.6675880  69.1967060  48.1210290  24.3860150  69.7000660  47.3571110
  25.0495580  68.3988810  47.7552420  23.5584980  86.4642720  32.9077970
  24.2903800  86.1802000  32.3601860  23.8178650  86.2256000  33.7977350
  22.7199770  82.5807450  32.9124300  22.0908650  83.0492550  33.4610130
  22.8347600  81.7356670  33.3470490  31.2691340  68.6120640  48.6990760
  31.1556790  68.9315250  49.5942280  32.0861080  69.0133150  48.4028040
  34.0489830  85.7592170  48.1809450  34.8415150  85.2641400  47.9735410
  34.3422980  86.4382310  48.7885060  30.1749490  76.6313110  19.0625500
  30.0943540  75.7167720  18.7917210  29.7613910  77.1280180  18.3565210
  28.3067530  78.4092130  20.9434770  27.5309630  77.9292570  21.2333340
  28.9580460  77.7297780  20.7690930  22.3233360  78.7211940  21.8210530
  21.4918240  78.4660650  22.2207040  22.9314340  78.7922710  22.5568450
  32.3274960  82.8152320  19.7233900  31.8656490  82.0439560  20.0521070
  33.1400510  82.8418390  20.2286350  22.3034620  82.7552030  22.0168550
  22.6062660  81.8649770  21.8378770  23.0478210  83.3122250  21.7890800
  20.7325310  73.6813830  15.6052920  19.8442010  74.0229800  15.5032800
  21.0166500  73.4814150  14.7133750  18.6958320  76.2819480  21.4892620
  19.2674430  75.5141680  21.4896260  18.6959860  76.5808240  20.5799230
  28.5538270  85.1010330  19.3437890  27.9349710  85.5567830  18.7732330
  29.4090050  85.2561790  18.9427590  27.7476520  81.0849320  20.9504930
  27.6784800  80.1439260  20.7894060  28.5096380  81.1750730  21.5227500
  19.9383190  71.6903840  23.2761550  19.7586030  70.7929590  23.5564310
  19.5363270  72.2375710  23.9508500  28.7781690  73.8919700  21.1773860
  29.1546510  73.0191580  21.0647530  28.6801200  74.2278400  20.2864300
  22.9086700  72.2645330  16.6391300  23.0153450  73.1649060  16.9460060
  21.9979060  72.2163300  16.3485950  32.5605810  71.3870140  18.1102200
  33.3815430  70.8966710  18.1527680  32.5939890  71.9767800  18.8634040
  20.5569860  74.1864340  21.8843890  21.2379970  74.4502710  22.5031290
  20.2417910  73.3465210  22.2181900  24.7494430  75.2331700  20.9716480
  25.2572650  75.7312670  21.6121500  25.2807670  74.4566900  20.7955840
  36.8505360  73.4036890  24.6745830  36.1457530  73.7918600  24.1560940
  37.1163280  74.0987180  25.2766760  23.0330530  69.8730260  25.2379900
  23.0348970  70.3902650  24.4325800  22.2034840  69.3960440  25.2149830
  29.4201620  79.9849570  16.7369800  28.8018890  80.4499020  16.1732520
  29.9324870  80.6777050  17.1539310  24.2833380  79.5125440  23.4153400
  23.9502760  80.1394360  24.0574470  24.4600060  80.0387320  22.6355070
  32.7967290  73.3270520  20.8829740  32.0922860  73.6155410  21.4632850
  33.1579450  74.1370630  20.5229300  22.7145860  71.5840220  23.2450350
  23.0562670  72.4282270  22.9504220  21.7761670  71.7323960  23.3615690
  23.4952480  81.4806240  25.2302580  24.1126480  82.1557320  24.9487030
  22.6345600  81.8894220  25.1390080  18.7884820  80.6706100  14.1109430
  18.4112800  81.1593200  13.3794330  19.0457890  81.3431380  14.7415960
  34.4130070  82.9445650  23.1457220  33.7293590  83.6144760  23.1373890
  34.9524360  83.1426300  22.3802080  35.8654210  72.7725310  21.2738950
  34.9179120  72.8064290  21.4054380  36.1904200  73.5864260  21.6588310
  26.3973750  69.0722490  19.5694940  26.7048730  68.5169380  18.8530440
  25.4674450  69.2066950  19.3867930  31.9488810  84.7889780  21.8602400
  31.9615970  84.3852070  20.9924660  31.3964030  85.5637070  21.7563830
  33.2434230  81.5106000  16.9492570  33.1330560  80.5680330  17.0741990
  33.2402480  81.8721640  17.8355330  31.3474250  79.6919620  23.1885010
  31.7643040  79.4779730  22.3538470  32.0714070  79.9492410  23.7593630
  28.7854510  77.1371320  16.3055060  27.8583790  77.0708700  16.5343530
  28.9379330  78.0751450  16.1910300  28.7723590  73.4088320  13.3022220
  27.8327260  73.5702280  13.3874680  29.0906850  74.1274000  12.7558210
  35.2936350  78.0906840  23.2801250  34.4654980  78.1599930  22.8051380
  35.8886830  78.6761150  22.8117080  32.8151800  78.6991620  16.8090310
  32.1964220  78.3611170  16.1616610  32.7976250  78.0551380  17.5169500
  32.2578360  74.8776160  24.2256120  31.8449540  75.7029870  24.4796110
  31.5254310  74.2921200  24.0332480  24.3911150  77.6636060  19.0874790
  23.9868150  76.9513310  18.5920690  24.4774270  77.3189300  19.9762830
  24.8592850  81.3503620  21.2514000  24.5621140  80.7449090  20.5721780
  25.8092670  81.3880930  21.1403360  23.1039770  74.4379270  22.8673830
  23.6554360  74.5474610  22.0927080  23.6183280  74.8116870  23.5829060
  32.9478460  84.9235490  24.9137100  32.4709020  85.7307680  24.7209710
  32.2640250  84.2713820  25.0663310  23.9511280  81.0885310  27.9021800
  23.0539810  81.3125280  28.1495200  23.9764150  81.2120250  26.9533200
  30.9916500  77.9378430  13.8163060  31.4309780  77.1000860  13.6700880
  31.7044920  78.5707830  13.9027200  22.7782500  77.9598630  26.4779170
  22.6390270  78.8321430  26.8466570  21.8963860  77.6171440  26.3327110
  29.1011880  82.8774500  17.7844300  29.5407790  83.6198830  17.3699690
  29.0398770  83.1201070  18.7083260  24.5762850  83.9020330  28.6864320
  24.5478280  84.3063280  27.8192750  24.4127820  82.9730690  28.5235920
  34.5733640  69.1921240  12.1304100  34.2606300  69.2848070  13.0303170
  35.3346110  69.7702270  12.0801530  21.0915780  76.5581040  16.5881440
  20.9713380  77.2843130  15.9762710  20.7816670  75.7883950  16.1109350
  36.5277670  84.6847430  29.9828490  37.0037390  85.1630320  30.6617570
  37.1484830  84.6164920  29.2573990  18.7301150  79.7296180  22.3950080
  18.8081570  79.8644950  21.4505800  19.3442830  79.0212070  22.5878200
  19.9748780  81.4296370  18.8056260  19.5676860  81.5710960  17.9509860
  20.8661790  81.1456530  18.6027470  35.9310920  81.8760280  27.1428500
  36.0573980  81.6372160  26.2245680  35.9732300  81.0444820  27.6150580
  29.7927660  85.5788280  25.7123310  30.3072330  85.4896290  26.5145740
  28.9496740  85.9247980  26.0051220  31.7682060  85.8643620  15.1407310
  31.6083200  85.5746560  16.0389140  31.6028770  85.0883750  14.6052540
  24.2470440  85.6442150  16.9178930  24.0712920  84.7277690  16.7046730
  23.3926180  86.0029440  17.1576730  31.4708190  83.3731180  13.7005310
  30.7773350  83.3708470  13.0407590  32.2131050  82.9490500  13.2699480
  31.0358120  84.9993890  17.7753800  31.4915070  84.2183270  18.0892420
  31.3750640  85.7100710  18.3194980  35.7834930  73.9292740  28.1078240
  35.1679200  74.4372410  27.5793700  35.4631350  73.0291070  28.0504180
  18.7860670  80.7710350  24.9344540  18.9491710  80.3015710  24.1163910
  19.2513120  80.2633910  25.5993380  23.5579440  69.9016110  19.9705110
  23.1147590  70.6825650  19.6389630  24.1164430  70.2246000  20.6776050
  27.8449250  72.7684630  25.5740430  27.3828620  72.9767650  26.3860370
  27.4427360  71.9543980  25.2711100  32.8453760  73.9893580  26.7037090
  31.9947350  73.6899330  27.0246160  32.6855550  74.2335590  25.7920910
  29.9403470  75.4895330  28.8035880  30.2656880  74.6559080  28.4638110
  30.7283800  76.0123850  28.9514210  26.6738260  69.5226810  14.8510940
  26.0492440  69.5186680  15.5764250  26.5868380  68.6557770  14.4546910
  25.5955340  70.4463440  21.8294710  25.8927670  71.3526270  21.7486730
  26.1440900  69.9582220  21.2154280  23.3493660  75.0249680  17.6986360
  23.1234580  74.8086850  18.6032980  22.5686190  75.4578140  17.3532330
  30.5791420  75.0313050  16.2977010  29.9800310  75.7548850  16.1140630
  31.1271030  74.9689830  15.5153460  25.7892870  75.9235260  28.3646630
  25.6936470  74.9829990  28.2147030  26.6324850  76.1450330  27.9694700
  29.1856290  73.6676590  18.3280290  29.5785860  73.9848790  17.5148980
  29.5473140  72.7888470  18.4424810  20.9203410  72.3348930  26.5180410
  20.5266800  73.1824140  26.7253190  20.2321810  71.6975300  26.7089050
  27.4948460  72.4183900  29.5877150  26.8046780  72.2256100  30.2223240
  28.2380760  72.7018540  30.1201450  18.2220460  70.2577390  20.5510490
  17.9333510  70.8280250  21.2635470  18.9666220  69.7781840  20.9141720
  18.4090690  74.1997510  11.7613210  18.3265360  75.1428270  11.9028200
  18.0573750  74.0572420  10.8825560  29.7711430  76.2582340  22.4231070
  29.0392550  76.7669150  22.7721170  29.3735770  75.4412320  22.1219850
  26.2088820  72.9336540  20.8283560  26.2124880  72.4926490  19.9788100
  27.1039940  73.2553870  20.9355380  22.0591200  72.8163030  19.7877770
  21.7191250  73.2938260  20.5444820  21.2968520  72.3628150  19.4278870
  26.2708970  73.9348620  13.8190320  26.3921790  73.8935100  14.7676140
  25.8857480  74.7972770  13.6637050  30.2337340  71.7116020  21.8354010
  30.2510080  72.1624670  22.6795860  29.9852920  70.8121660  22.0487450
  25.2830470  76.2449760  13.2173620  24.7147370  75.7968010  12.5909530
  25.9919470  76.6042540  12.6838770  33.6608090  69.1248200  27.6740390
  33.9853860  68.3937860  28.1998370  33.6964600  68.8061840  26.7721380
  20.3599650  80.1461780  27.0940350  19.9754440  79.5055450  27.6923310
  20.6711840  80.8497900  27.6635080  26.5096790  76.9938320  22.5748970
  26.8766920  76.5196890  23.3210310  26.3201850  77.8679890  22.9157310
  19.3737280  71.7382010  18.7042440  19.0884200  71.3737680  19.5421060
  19.3116140  71.0062470  18.0905580  24.2996160  76.0346960  24.8933180
  23.9953230  76.9138940  25.1183540  25.2542620  76.0946750  24.9290620
  22.8277950  80.2407950  15.4900030  22.0540210  79.7005570  15.3298750
  23.5572580  79.7214560  15.1517790  33.5865930  79.2373310  21.2826420
  34.3065050  79.7328600  20.8922530  33.3847750  78.5591200  20.6380290
  29.0475870  70.6311270  15.4255810  28.2340480  70.1324440  15.3501120
  28.8537820  71.4709520  15.0092160  28.9684730  79.3082370  27.1695420
  28.9022040  78.3878040  26.9153010  28.3389870  79.4057810  27.8840060
  31.7624260  75.0030920  13.7217970  32.6503880  75.3148150  13.5469310
  31.7329350  74.1303170  13.3298550  22.8715350  79.9088330  19.1278840
  23.3894020  79.1056590  19.0735730  22.4199370  79.8467470  19.9695670
  27.7584850  81.1754610  14.4006140  28.1000550  81.9196840  13.9049460
  26.9297560  81.4885730  14.7630970  20.3559890  76.8749700  26.0404540
  19.9974830  77.5403550  26.6277880  20.0614450  76.0433250  26.4117160
  23.5573010  77.3333940  28.9244090  23.2573150  77.4791120  28.0271910
  24.3284250  76.7739230  28.8317480  28.9001460  82.1302940  26.9199220
  28.9146000  81.1983900  26.7018130  28.1926560  82.2162700  27.5588990
  34.0338530  76.3142760  13.1897830  33.9502250  76.7456980  12.3394270
  34.7532720  76.7741110  13.6224650  35.1112670  78.7710280  26.2667800
  34.3860860  79.3639060  26.0697190  35.6388130  78.7633820  25.4681170
  35.0625780  83.1685020  15.9179960  34.4201940  82.5140640  16.1923680
  34.6756440  83.5740110  15.1420630  30.6412260  80.4970450  19.7651650
  30.9936080  79.8998580  19.1053020  29.7574590  80.1714680  19.9359900
  26.7275540  81.2568140  17.1722060  27.4146670  81.8037350  17.5529650
  25.9407960  81.8008870  17.2071670  18.8667940  76.8740960  12.6639140
  19.7362790  77.1565760  12.9475060  18.3758260  77.6876830  12.5487950
  26.0302750  78.2614170  16.7847420  26.4865530  79.0719420  17.0107610
  25.6790960  77.9437310  17.6165910  28.3335360  83.7720510  24.0139720
  28.9777580  83.9779890  24.6913140  28.6964800  83.0108910  23.5610570
  21.9314530  68.6051820  17.2569940  21.8029160  68.5969720  18.2054860
  21.1076550  68.9434910  16.9060950  29.6067440  81.7752860  22.7317170
  30.2489670  81.0746020  22.8449340  30.1316790  82.5551300  22.5514060
  33.4523160  82.0601480  12.4556310  33.2260740  81.3431920  13.0480950
  33.0619360  81.8113920  11.6178060  31.3805060  82.5747760  25.9353230
  31.7161300  83.1614450  26.6131150  30.4605400  82.4440470  26.1651020
  19.2339190  86.0868340  13.2300770  19.5936830  86.6857680  12.5758040
  19.0931530  86.6328230  14.0035800  18.9308460  70.3642940  26.7176640
  18.2166980  70.5639860  27.3229250  19.3503500  69.5882510  27.0891440
  33.0339410  79.9773420  14.1170470  32.7461110  80.4386110  14.9048350
  33.8291580  79.5171190  14.3854690  19.2181050  84.3523200  27.7043170
  19.3272170  83.4117940  27.5638560  18.5661610  84.6177950  27.0556900
  27.2093640  82.6239090  29.1041290  26.8890510  81.9048330  29.6486980
  26.5352000  83.2994160  29.1777350  25.2507810  83.4699540  14.0474440
  25.2417910  84.2029230  13.4318950  24.3306170  83.2231120  14.1401400
  20.8514450  78.6914430  14.7921200  20.2442400  79.4313330  14.8016500
  21.3263800  78.7813790  13.9659400  30.4247240  72.8565250  24.4678090
  30.7928060  72.0360460  24.7957660  29.5645440  72.9167140  24.8833740
  33.7909270  71.8122190  15.2765650  33.1622430  71.9167860  14.5623880
  33.2961190  72.0318970  16.0659530  28.2367410  83.5327780  12.7099630
  28.3379390  83.3291770  11.7801610  27.3369150  83.2786060  12.9147410
  25.7593300  74.0908140  16.6923530  25.0509450  74.5594480  17.1337140
  26.0437780  73.4330150  17.3268720  27.3849230  75.5104840  24.6916060
  27.8834480  75.9850660  25.3567910  27.5272180  74.5868360  24.8986090
  29.7908730  70.8158800  18.1319320  29.6676510  70.8344930  17.1828830
  30.7393290  70.8637740  18.2517720  26.8785520  86.0514100  17.4047300
  27.1327020  86.0135490  16.4826670  25.9298000  85.9247430  17.3975550
  23.9628320  72.3993220  14.0674240  24.8118850  72.8363370  14.0014430
  23.5959590  72.7113480  14.8946300  34.5916090  71.7272800  25.5344450
  34.0889690  72.4678200  25.8738260  35.4072750  72.1156800  25.2181240
  32.8838100  76.9705980  18.9805810  31.9428240  76.9856210  19.1553500
  33.1982170  76.1841940  19.4266110  22.8619740  78.6525580  12.5409770
  23.6283010  78.5406940  13.1035200  22.9394430  77.9563550  11.8886540
  21.5566500  76.0850650  13.2242660  21.6370090  75.1378160  13.3360060
  22.4486250  76.4157530  13.3303320  34.8863680  84.1414830  20.6560070
  35.0111100  84.9646000  21.1283880  35.7529240  83.9305560  20.3084220
  22.3581210  86.2346040  20.3277200  23.0943690  85.6861500  20.5985770
  22.7422130  87.1002050  20.1883190  19.2426690  82.3019610  16.2018710
  18.3166470  82.5440750  16.1924120  19.7083120  83.1293870  16.0803460
  21.3639490  85.4192110  29.5162780  22.1652220  85.7404160  29.9298180
  20.8491310  85.0587690  30.2382690  25.4683520  85.4076350  12.1502770
  26.2612130  85.6965180  11.6984560  24.9487870  84.9768520  11.4715250
  30.2004120  81.5271980  29.4638190  29.5942280  81.5503580  28.7233940
  29.8958230  80.7955020  30.0005440  31.6304490  85.2552270  28.0747600
  32.5826240  85.1710290  28.0247840  31.4832710  85.9193980  28.7481390
  34.5213690  84.6346480  13.5739510  34.2355200  84.2211620  12.7593690
  34.3233240  85.5634190  13.4540030  19.0837300  77.9065570  28.4598830
  19.5876320  77.3272850  29.0315060  18.3444720  78.1905800  28.9975200
  25.9860920  80.6279760  12.0145120  25.8811560  80.0132110  12.7406500
  25.8185140  80.1045650  11.2308130  26.1375240  79.3136560  27.9934350
  25.3720910  79.8821560  27.9089020  26.3191200  79.0212770  27.1002580
  29.2263650  79.6899790  12.6187110  28.6773750  80.1369090  13.2629850
  29.8482910  79.1849040  13.1424780  33.2798590  81.0441890  28.5509370
  34.0208060  81.3817650  28.0476830  32.5171270  81.2133950  27.9979140
  21.1160380  76.0495160  29.3548900  21.1565720  75.7509030  30.2634130
  21.9705880  76.4502770  29.1956420  24.8938770  78.6490710  14.5152410
  25.3155190  78.4830580  15.3583800  25.0189610  77.8390940  14.0207550
  23.0566190  74.6287260  27.3223390  22.5262650  74.1378210  26.6946730
  23.7254260  75.0571460  26.7881320  27.4066410  77.6728320  11.7629510
  27.9272070  76.9577340  11.3970660  28.0534810  78.3114190  12.0630020
  31.9544250  79.0956720  27.0864580  32.3685270  79.2501800  27.9355000
  31.0195250  79.2211940  27.2490360  32.4266420  76.4352880  29.0903730
  33.0087190  75.6805200  29.0024210  32.6028190  76.9660320  28.3135210
  23.5438490  71.5949630  27.4020680  23.4495360  70.9770380  26.6771550
  22.9635880  72.3215920  27.1750590  26.3099930  70.1522870  24.4348070
  25.8617230  70.1747130  23.5893620  25.6765130  69.7541890  25.0318370
  26.7159480  79.0477200  25.0560510  27.1347590  79.8909930  24.8836750
  25.7968110  79.1849240  24.8267290  29.0523380  76.7793380  26.4398350
  29.1719590  76.1834520  27.1793190  29.9117380  76.8163070  26.0199650
  31.3911280  77.3330570  25.0160860  30.8646500  77.8573190  24.4126000
  31.7342620  77.9657960  25.6470590  23.7897670  74.7223940  11.4610570
  23.5886730  73.8591300  11.8223910  23.6189720  74.6357300  10.5232170
  24.5666900  85.3530210  26.1718240  24.0287990  86.0776270  25.8526940
  24.8200860  84.8760550  25.3815580  25.8192150  73.3214730  27.6974170
  26.4091840  73.0130580  28.3851990  25.0012390  72.8494480  27.8534070
  30.6385580  72.9380540  27.9307190  29.9501100  72.2762080  27.8657180
  31.3591600  72.4918810  28.3755650  31.2685980  69.5332170  13.9897450
  31.5488270  68.6900070  14.3456870  30.4951710  69.7655280  14.5036200
  22.5880470  71.8224560  11.4488450  22.8906370  71.8291990  10.5407600
  23.3275060  71.4722420  11.9456110  27.4229110  86.5881420  26.4304890
  27.3487810  87.4916560  26.7377260  26.5207950  86.2693320  26.4026960
  25.8065400  70.7659180  12.4344650  25.4587400  70.0883170  11.8547100
  26.0078170  70.3048690  13.2488040  27.9714440  85.7539930  14.0531250
  28.8665230  86.0924900  14.0750010  28.0032070  85.0319340  13.4255530
  21.6110600  81.1266980  12.2818250  22.0485470  81.6696650  12.9375830
  22.0958330  80.3013930  12.2914590  18.8256400  83.9156010  19.7338510
  19.1559410  83.0477070  19.5017150  19.2547400  84.1214530  20.5643470
  23.4218320  82.2465020  17.3940480  23.1213860  82.1229990  18.2944390
  23.3155810  81.3873610  16.9856210  19.3146610  84.7826600  22.4720140
  18.8777600  84.9627400  23.3044290  19.8824290  85.5401220  22.3301860
  34.9508790  84.2843600  26.7597450  34.3510780  84.3436160  26.0161370
  35.0802690  83.3448580  26.8894300  36.1910240  82.0261420  12.0967160
  35.3603200  82.0938070  12.5674390  36.3682070  82.9165540  11.7934020
  35.6466700  78.7708900  14.6001360  36.4085610  79.3405550  14.7061050
  35.6621070  78.2036100  15.3709670  19.1471040  77.2946830  18.8309020
  18.4919880  77.0258470  18.1868720  19.9848990  77.1851310  18.3811000
  36.6526670  79.6259000  19.4443290  37.0235500  78.8426320  19.0379260
  37.2928600  80.3148100  19.2660590  33.6360430  81.0095580  24.8573610
  32.8220270  81.4392740  25.1199400  34.0434630  81.6213990  24.2442660
  35.6985870  79.0643270  11.7573880  35.9734710  79.9722150  11.6293100
  35.5096610  79.0005800  12.6935870  32.0961480  72.0888120  13.0527510
  32.5146360  71.9019100  12.2124170  31.7897540  71.2367170  13.3630440
  35.5951210  77.0012260  16.7503310  35.2194810  76.2340190  16.3184600
  34.8654330  77.3834960  17.2378240  20.1846970  77.6799400  23.3712360
  20.5520010  77.5926800  24.2508380  19.6157790  76.9165950  23.2719220
  34.9850830  76.1483780  26.3842830  34.7536920  75.9196530  25.4840780
  35.2455380  77.0683330  26.3387720  19.7362970  74.5908490  27.2770780
  18.8419020  74.5575250  27.6164490  20.2760520  74.7895280  28.0422030
  33.4238900  71.3740210  29.1622530  34.3009080  71.3823610  29.5456530
  33.4359740  70.6371050  28.5514880  18.3609120  74.5045760  14.7734350
  17.4573200  74.7675960  14.5986010  18.8449740  74.7756930  13.9934310
  34.8702170  75.2269750  20.0510550  35.3939650  74.7332400  19.4200720
  35.4561590  75.3620110  20.7958120  35.0491890  75.3109620  23.5730100
  34.0994600  75.2773160  23.6875090  35.2304900  76.2209730  23.3379870
  20.9036330  73.5611300  12.6828730  21.6128030  73.1394520  12.1976010
  20.1876270  73.6286530  12.0512080  20.5510490  69.6150630  11.7231380
  21.2738620  70.1559570  12.0412600  20.8235010  69.3414050  10.8472920
  34.3602140  74.4843100  15.9902960  34.8561260  74.2513970  16.7751840
  34.1618210  73.6454940  15.5740600  20.2402680  68.8656820  21.6254000
  20.8878870  68.3154200  21.1849160  20.6604520  69.1199970  22.4469810
  35.7889300  73.1204050  18.5240640  35.6788580  72.9660090  19.4622910
  36.5496890  72.5924990  18.2816050  34.1355020  69.0598180  24.9823640
  34.7727240  69.6732320  25.3482830  34.2829910  69.0958840  24.0372870
  36.6779570  70.9511970  11.7646780  37.6028880  70.8193150  11.5565070
  36.6555360  71.0304790  12.7183230  36.7518060  71.7222630  14.3903490
  35.9569560  71.6567750  14.9196400  36.9561340  72.6573270  14.3788840
  33.6936480  85.7614180  18.3841880  34.2895550  85.4398750  17.7076300
  33.9514630  85.2886000  19.1755150  19.9934680  69.0212490  24.3679320
  19.6449500  69.4776310  25.1337500  19.6622380  68.1269620  24.4501750
  21.5999050  82.1932090  28.5332510  21.5568680  81.8225000  29.4146970
  21.7310060  83.1309660  28.6734330  25.3005080  83.7491680  24.1342230
  25.0596440  84.0166240  23.2472750  26.2407720  83.9197410  24.1893090
  27.5059500  70.2124370  27.8898740  27.4448390  70.8046200  28.6394150
  28.4459880  70.1050330  27.7449000  30.1434060  69.8694430  27.5291030
  30.7574470  70.1873720  26.8672110  30.6883620  69.3843020  28.1486890
  36.5609240  85.7686060  24.9352870  36.0667520  86.1654930  24.2180000
  35.9522530  85.1435270  25.3290150  20.6655320  68.5488690  27.6430090
  21.2138310  68.3676740  26.8796200  20.7310630  67.7582800  28.1786400
  21.4387080  85.1394340  25.6530290  20.8447400  85.0079040  26.3920330
  21.4310920  84.3032480  25.1872390  30.8842100  68.4326570  23.8560320
  30.0101940  68.7661680  23.6533250  30.7752850  67.9599750  24.6812190
  31.7914080  70.6397440  25.2402040  31.4627440  69.8249200  24.8603770
  32.7396380  70.5967250  25.1167730  34.2448690  86.4109480  22.2139610
  33.7851660  87.1625290  21.8397630  33.6161150  85.6915950  22.1554410
  21.0699310  82.5052720  24.6038330  20.3433370  81.8858010  24.5364280
  21.1308460  82.8993330  23.7336410  24.6744410  84.7197720  21.3887740
  25.1909430  84.1085080  20.8636000  25.3241790  85.2226500  21.8798750
  27.4139910  85.6106210  22.2156720  27.7017720  85.3560510  21.3389730
  27.9263130  85.0583570  22.8062290  28.6316920  69.3496410  22.7953230
  27.8488710  69.8241910  23.0749990  28.3379850  68.4451240  22.6866410
  33.1837990  70.0519510  20.8402320  33.6246080  69.9964610  19.9923920
  32.9145580  70.9677520  20.9112500  35.0476560  69.6834750  18.8511140
  34.9864960  68.7395970  18.7042160  35.8268590  69.7914840  19.3964600
  19.3529310  85.8227110  17.8135090  19.1851350  85.1897790  18.5116980
  18.4863820  86.0286510  17.4629280  19.9757330  69.6543890  15.3166950
  20.7336690  69.7672770  14.7430980  19.5134500  70.4913090  15.2710380
  26.5171140  71.7683160  18.3069260  25.7045650  71.3940050  17.9665140
  27.0212780  71.0128240  18.6090450  31.0196120  68.4325610  19.5452330
  31.6225490  69.0045820  20.0200850  30.2789110  68.9965050  19.3226230
  34.1630720  68.8347170  14.8192610  34.3581350  69.7330620  15.0860040
  33.3760590  68.6034250  15.3125560  20.9592010  84.5160340  15.2585230
  20.4339630  84.8968370  14.5547190  20.8836590  85.1411110  15.9794940
  22.3482480  70.1807940  13.8568920  22.8775240  69.3937740  13.7276870
  22.9810800  70.8599130  14.0904450  24.5420320  69.9183080  16.9114310
  23.9123060  69.2170390  17.0784440  24.0025460  70.6787210  16.6947470
  27.4812270  86.5322310  29.5824920  28.4079580  86.2966580  29.6260880
  27.4662700  87.3594310  29.1010950  35.7157330  86.0747880  16.5799170
  35.8909520  85.3885620  15.9360090  35.0178900  86.5994930  16.1875840
  24.6675880  69.1967060  29.3466800  24.3860150  69.7000660  28.5827620
  25.0495580  68.3988810  28.9808930  23.5584980  86.4642720  14.1334480
  24.2903800  86.1802000  13.5858370  23.8178650  86.2256000  15.0233860
  22.7199770  82.5807450  14.1380810  22.0908650  83.0492550  14.6866640
  22.8347600  81.7356670  14.5727000  31.2691340  68.6120640  29.9247270
  31.1556790  68.9315250  30.8198790  32.0861080  69.0133150  29.6284550
  34.0489830  85.7592170  29.4065960  34.8415150  85.2641400  29.1991920
  34.3422980  86.4382310  30.0141570  28.3067530  78.4092130   2.1691280
  27.5309630  77.9292570   2.4589850  28.9580460  77.7297780   1.9947440
  22.3233360  78.7211940   3.0467040  21.4918240  78.4660650   3.4463550
  22.9314340  78.7922710   3.7824960  22.3034620  82.7552030   3.2425060
  22.6062660  81.8649770   3.0635280  23.0478210  83.3122250   3.0147310
  18.6958320  76.2819480   2.7149130  19.2674430  75.5141680   2.7152770
  18.6959860  76.5808240   1.8055740  27.7476520  81.0849320   2.1761440
  27.6784800  80.1439260   2.0150570  28.5096380  81.1750730   2.7484010
  19.9383190  71.6903840   4.5018060  19.7586030  70.7929590   4.7820820
  19.5363270  72.2375710   5.1765010  20.5569860  74.1864340   3.1100400
  21.2379970  74.4502710   3.7287800  20.2417910  73.3465210   3.4438410
  24.7494430  75.2331700   2.1972990  25.2572650  75.7312670   2.8378010
  25.2807670  74.4566900   2.0212350  36.8505360  73.4036890   5.9002340
  36.1457530  73.7918600   5.3817450  37.1163280  74.0987180   6.5023270
  23.0330530  69.8730260   6.4636410  23.0348970  70.3902650   5.6582310
  22.2034840  69.3960440   6.4406340  24.2833380  79.5125440   4.6409910
  23.9502760  80.1394360   5.2830980  24.4600060  80.0387320   3.8611580
  32.7967290  73.3270520   2.1086250  32.0922860  73.6155410   2.6889360
  33.1579450  74.1370630   1.7485810  22.7145860  71.5840220   4.4706860
  23.0562670  72.4282270   4.1760730  21.7761670  71.7323960   4.5872200
  23.4952480  81.4806240   6.4559090  24.1126480  82.1557320   6.1743540
  22.6345600  81.8894220   6.3646590  34.4130070  82.9445650   4.3713730
  33.7293590  83.6144760   4.3630400  34.9524360  83.1426300   3.6058590
  35.8654210  72.7725310   2.4995460  34.9179120  72.8064290   2.6310890
  36.1904200  73.5864260   2.8844820  31.9488810  84.7889780   3.0858910
  31.9615970  84.3852070   2.2181170  31.3964030  85.5637070   2.9820340
  31.3474250  79.6919620   4.4141520  31.7643040  79.4779730   3.5794980
  32.0714070  79.9492410   4.9850140  35.2936350  78.0906840   4.5057760
  34.4654980  78.1599930   4.0307890  35.8886830  78.6761150   4.0373590
  32.2578360  74.8776160   5.4512630  31.8449540  75.7029870   5.7052620
  31.5254310  74.2921200   5.2588990  24.8592850  81.3503620   2.4770510
  24.5621140  80.7449090   1.7978290  25.8092670  81.3880930   2.3659870
  23.1039770  74.4379270   4.0930340  23.6554360  74.5474610   3.3183590
  23.6183280  74.8116870   4.8085570  32.9478460  84.9235490   6.1393610
  32.4709020  85.7307680   5.9466220  32.2640250  84.2713820   6.2919820
  23.9511280  81.0885310   9.1278310  23.0539810  81.3125280   9.3751710
  23.9764150  81.2120250   8.1789710  22.7782500  77.9598630   7.7035680
  22.6390270  78.8321430   8.0723080  21.8963860  77.6171440   7.5583620
  24.5762850  83.9020330   9.9120830  24.5478280  84.3063280   9.0449260
  24.4127820  82.9730690   9.7492430  36.5277670  84.6847430  11.2085000
  37.0037390  85.1630320  11.8874080  37.1484830  84.6164920  10.4830500
  18.7301150  79.7296180   3.6206590  18.8081570  79.8644950   2.6762310
  19.3442830  79.0212070   3.8134710  35.9310920  81.8760280   8.3685010
  36.0573980  81.6372160   7.4502190  35.9732300  81.0444820   8.8407090
  29.7927660  85.5788280   6.9379820  30.3072330  85.4896290   7.7402250
  28.9496740  85.9247980   7.2307730  35.7834930  73.9292740   9.3334750
  35.1679200  74.4372410   8.8050210  35.4631350  73.0291070   9.2760690
  18.7860670  80.7710350   6.1601050  18.9491710  80.3015710   5.3420420
  19.2513120  80.2633910   6.8249890  27.8449250  72.7684630   6.7996940
  27.3828620  72.9767650   7.6116880  27.4427360  71.9543980   6.4967610
  32.8453760  73.9893580   7.9293600  31.9947350  73.6899330   8.2502670
  32.6855550  74.2335590   7.0177420  29.9403470  75.4895330  10.0292390
  30.2656880  74.6559080   9.6894620  30.7283800  76.0123850  10.1770720
  25.5955340  70.4463440   3.0551220  25.8927670  71.3526270   2.9743240
  26.1440900  69.9582220   2.4410790  25.7892870  75.9235260   9.5903140
  25.6936470  74.9829990   9.4403540  26.6324850  76.1450330   9.1951210
  20.9203410  72.3348930   7.7436920  20.5266800  73.1824140   7.9509700
  20.2321810  71.6975300   7.9345560  27.4948460  72.4183900  10.8133660
  26.8046780  72.2256100  11.4479750  28.2380760  72.7018540  11.3457960
  18.2220460  70.2577390   1.7767000  17.9333510  70.8280250   2.4891980
  18.9666220  69.7781840   2.1398230  29.7711430  76.2582340   3.6487580
  29.0392550  76.7669150   3.9977680  29.3735770  75.4412320   3.3476360
  30.2337340  71.7116020   3.0610520  30.2510080  72.1624670   3.9052370
  29.9852920  70.8121660   3.2743960  33.6608090  69.1248200   8.8996900
  33.9853860  68.3937860   9.4254880  33.6964600  68.8061840   7.9977890
  20.3599650  80.1461780   8.3196860  19.9754440  79.5055450   8.9179820
  20.6711840  80.8497900   8.8891590  26.5096790  76.9938320   3.8005480
  26.8766920  76.5196890   4.5466820  26.3201850  77.8679890   4.1413820
  24.2996160  76.0346960   6.1189690  23.9953230  76.9138940   6.3440050
  25.2542620  76.0946750   6.1547130  33.5865930  79.2373310   2.5082930
  34.3065050  79.7328600   2.1179040  33.3847750  78.5591200   1.8636800
  28.9684730  79.3082370   8.3951930  28.9022040  78.3878040   8.1409520
  28.3389870  79.4057810   9.1096570  20.3559890  76.8749700   7.2661050
  19.9974830  77.5403550   7.8534390  20.0614450  76.0433250   7.6373670
  23.5573010  77.3333940  10.1500600  23.2573150  77.4791120   9.2528420
  24.3284250  76.7739230  10.0573990  28.9001460  82.1302940   8.1455730
  28.9146000  81.1983900   7.9274640  28.1926560  82.2162700   8.7845500
  35.1112670  78.7710280   7.4924310  34.3860860  79.3639060   7.2953700
  35.6388130  78.7633820   6.6937680  28.3335360  83.7720510   5.2396230
  28.9777580  83.9779890   5.9169650  28.6964800  83.0108910   4.7867080
  29.6067440  81.7752860   3.9573680  30.2489670  81.0746020   4.0705850
  30.1316790  82.5551300   3.7770570  31.3805060  82.5747760   7.1609740
  31.7161300  83.1614450   7.8387660  30.4605400  82.4440470   7.3907530
  18.9308460  70.3642940   7.9433150  18.2166980  70.5639860   8.5485760
  19.3503500  69.5882510   8.3147950  19.2181050  84.3523200   8.9299680
  19.3272170  83.4117940   8.7895070  18.5661610  84.6177950   8.2813410
  27.2093640  82.6239090  10.3297800  26.8890510  81.9048330  10.8743490
  26.5352000  83.2994160  10.4033860  30.4247240  72.8565250   5.6934600
  30.7928060  72.0360460   6.0214170  29.5645440  72.9167140   6.1090250
  27.3849230  75.5104840   5.9172570  27.8834480  75.9850660   6.5824420
  27.5272180  74.5868360   6.1242600  34.5916090  71.7272800   6.7600960
  34.0889690  72.4678200   7.0994770  35.4072750  72.1156800   6.4437750
  21.3639490  85.4192110  10.7419290  22.1652220  85.7404160  11.1554690
  20.8491310  85.0587690  11.4639200  30.2004120  81.5271980  10.6894700
  29.5942280  81.5503580   9.9490450  29.8958230  80.7955020  11.2261950
  31.6304490  85.2552270   9.3004110  32.5826240  85.1710290   9.2504350
  31.4832710  85.9193980   9.9737900  19.0837300  77.9065570   9.6855340
  19.5876320  77.3272850  10.2571570  18.3444720  78.1905800  10.2231710
  26.1375240  79.3136560   9.2190860  25.3720910  79.8821560   9.1345530
  26.3191200  79.0212770   8.3259090  33.2798590  81.0441890   9.7765880
  34.0208060  81.3817650   9.2733340  32.5171270  81.2133950   9.2235650
  21.1160380  76.0495160  10.5805410  21.1565720  75.7509030  11.4890640
  21.9705880  76.4502770  10.4212930  23.0566190  74.6287260   8.5479900
  22.5262650  74.1378210   7.9203240  23.7254260  75.0571460   8.0137830
  31.9544250  79.0956720   8.3121090  32.3685270  79.2501800   9.1611510
  31.0195250  79.2211940   8.4746870  32.4266420  76.4352880  10.3160240
  33.0087190  75.6805200  10.2280720  32.6028190  76.9660320   9.5391720
  23.5438490  71.5949630   8.6277190  23.4495360  70.9770380   7.9028060
  22.9635880  72.3215920   8.4007100  26.3099930  70.1522870   5.6604580
  25.8617230  70.1747130   4.8150130  25.6765130  69.7541890   6.2574880
  26.7159480  79.0477200   6.2817020  27.1347590  79.8909930   6.1093260
  25.7968110  79.1849240   6.0523800  29.0523380  76.7793380   7.6654860
  29.1719590  76.1834520   8.4049700  29.9117380  76.8163070   7.2456160
  31.3911280  77.3330570   6.2417370  30.8646500  77.8573190   5.6382510
  31.7342620  77.9657960   6.8727100  24.5666900  85.3530210   7.3974750
  24.0287990  86.0776270   7.0783450  24.8200860  84.8760550   6.6072090
  25.8192150  73.3214730   8.9230680  26.4091840  73.0130580   9.6108500
  25.0012390  72.8494480   9.0790580  30.6385580  72.9380540   9.1563700
  29.9501100  72.2762080   9.0913690  31.3591600  72.4918810   9.6012160
  27.4229110  86.5881420   7.6561400  27.3487810  87.4916560   7.9633770
  26.5207950  86.2693320   7.6283470  19.3146610  84.7826600   3.6976650
  18.8777600  84.9627400   4.5300800  19.8824290  85.5401220   3.5558370
  34.9508790  84.2843600   7.9853960  34.3510780  84.3436160   7.2417880
  35.0802690  83.3448580   8.1150810  33.6360430  81.0095580   6.0830120
  32.8220270  81.4392740   6.3455910  34.0434630  81.6213990   5.4699170
  20.1846970  77.6799400   4.5968870  20.5520010  77.5926800   5.4764890
  19.6157790  76.9165950   4.4975730  34.9850830  76.1483780   7.6099340
  34.7536920  75.9196530   6.7097290  35.2455380  77.0683330   7.5644230
  19.7362970  74.5908490   8.5027290  18.8419020  74.5575250   8.8421000
  20.2760520  74.7895280   9.2678540  33.4238900  71.3740210  10.3879040
  34.3009080  71.3823610  10.7713040  33.4359740  70.6371050   9.7771390
  35.0491890  75.3109620   4.7986610  34.0994600  75.2773160   4.9131600
  35.2304900  76.2209730   4.5636380  20.2402680  68.8656820   2.8510510
  20.8878870  68.3154200   2.4105670  20.6604520  69.1199970   3.6726320
  34.1355020  69.0598180   6.2080150  34.7727240  69.6732320   6.5739340
  34.2829910  69.0958840   5.2629380  19.9934680  69.0212490   5.5935830
  19.6449500  69.4776310   6.3594010  19.6622380  68.1269620   5.6758260
  21.5999050  82.1932090   9.7589020  21.5568680  81.8225000  10.6403480
  21.7310060  83.1309660   9.8990840  25.3005080  83.7491680   5.3598740
  25.0596440  84.0166240   4.4729260  26.2407720  83.9197410   5.4149600
  27.5059500  70.2124370   9.1155250  27.4448390  70.8046200   9.8650660
  28.4459880  70.1050330   8.9705510  30.1434060  69.8694430   8.7547540
  30.7574470  70.1873720   8.0928620  30.6883620  69.3843020   9.3743400
  36.5609240  85.7686060   6.1609380  36.0667520  86.1654930   5.4436510
  35.9522530  85.1435270   6.5546660  20.6655320  68.5488690   8.8686600
  21.2138310  68.3676740   8.1052710  20.7310630  67.7582800   9.4042910
  21.4387080  85.1394340   6.8786800  20.8447400  85.0079040   7.6176840
  21.4310920  84.3032480   6.4128900  30.8842100  68.4326570   5.0816830
  30.0101940  68.7661680   4.8789760  30.7752850  67.9599750   5.9068700
  31.7914080  70.6397440   6.4658550  31.4627440  69.8249200   6.0860280
  32.7396380  70.5967250   6.3424240  34.2448690  86.4109480   3.4396120
  33.7851660  87.1625290   3.0654140  33.6161150  85.6915950   3.3810920
  21.0699310  82.5052720   5.8294840  20.3433370  81.8858010   5.7620790
  21.1308460  82.8993330   4.9592920  24.6744410  84.7197720   2.6144250
  25.1909430  84.1085080   2.0892510  25.3241790  85.2226500   3.1055260
  27.4139910  85.6106210   3.4413230  27.7017720  85.3560510   2.5646240
  27.9263130  85.0583570   4.0318800  28.6316920  69.3496410   4.0209740
  27.8488710  69.8241910   4.3006500  28.3379850  68.4451240   3.9122920
  27.4812270  86.5322310  10.8081430  28.4079580  86.2966580  10.8517390
  27.4662700  87.3594310  10.3267460  24.6675880  69.1967060  10.5723310
  24.3860150  69.7000660   9.8084130  25.0495580  68.3988810  10.2065440
  31.2691340  68.6120640  11.1503780  31.1556790  68.9315250  12.0455300
  32.0861080  69.0133150  10.8541060  34.0489830  85.7592170  10.6322470
  34.8415150  85.2641400  10.4248430  34.3422980  86.4382310  11.2398080
  30.1749490  57.8569620  94.1599460  30.0943540  56.9424230  93.8891170
  29.7613910  58.3536690  93.4539170  32.3274960  64.0408830  94.8207860
  31.8656490  63.2696070  95.1495030  33.1400510  64.0674900  95.3260310
  20.7325310  54.9070340  90.7026880  19.8442010  55.2486310  90.6006760
  21.0166500  54.7070660  89.8107710  28.5538270  66.3266840  94.4411850
  27.9349710  66.7824340  93.8706290  29.4090050  66.4818300  94.0401550
  22.9086700  53.4901840  91.7365260  23.0153450  54.3905570  92.0434020
  21.9979060  53.4419810  91.4459910  32.5605810  52.6126650  93.2076160
  33.3815430  52.1223220  93.2501640  32.5939890  53.2024310  93.9608000
  29.4201620  61.2106080  91.8343760  28.8018890  61.6755530  91.2706480
  29.9324870  61.9033560  92.2513270  18.7884820  61.8962610  89.2083390
  18.4112800  62.3849710  88.4768290  19.0457890  62.5687890  89.8389920
  26.3973750  50.2979000  94.6668900  26.7048730  49.7425890  93.9504400
  25.4674450  50.4323460  94.4841890  33.2434230  62.7362510  92.0466530
  33.1330560  61.7936840  92.1715950  33.2402480  63.0978150  92.9329290
  28.7854510  58.3627830  91.4029020  27.8583790  58.2965210  91.6317490
  28.9379330  59.3007960  91.2884260  28.7723590  54.6344830  88.3996180
  27.8327260  54.7958790  88.4848640  29.0906850  55.3530510  87.8532170
  32.8151800  59.9248130  91.9064270  32.1964220  59.5867680  91.2590570
  32.7976250  59.2807890  92.6143460  24.3911150  58.8892570  94.1848750
  23.9868150  58.1769820  93.6894650  24.4774270  58.5445810  95.0736790
  30.9916500  59.1634940  88.9137020  31.4309780  58.3257370  88.7674840
  31.7044920  59.7964340  89.0001160  29.1011880  64.1031010  92.8818260
  29.5407790  64.8455340  92.4673650  29.0398770  64.3457580  93.8057220
  34.5733640  50.4177750  87.2278060  34.2606300  50.5104580  88.1277130
  35.3346110  50.9958780  87.1775490  21.0915780  57.7837550  91.6855400
  20.9713380  58.5099640  91.0736670  20.7816670  57.0140460  91.2083310
  19.9748780  62.6552880  93.9030220  19.5676860  62.7967470  93.0483820
  20.8661790  62.3713040  93.7001430  31.7682060  67.0900130  90.2381270
  31.6083200  66.8003070  91.1363100  31.6028770  66.3140260  89.7026500
  24.2470440  66.8698660  92.0152890  24.0712920  65.9534200  91.8020690
  23.3926180  67.2285950  92.2550690  31.4708190  64.5987690  88.7979270
  30.7773350  64.5964980  88.1381550  32.2131050  64.1747010  88.3673440
  31.0358120  66.2250400  92.8727760  31.4915070  65.4439780  93.1866380
  31.3750640  66.9357220  93.4168940  23.5579440  51.1272620  95.0679070
  23.1147590  51.9082160  94.7363590  24.1164430  51.4502510  95.7750010
  26.6738260  50.7483320  89.9484900  26.0492440  50.7443190  90.6738210
  26.5868380  49.8814280  89.5520870  23.3493660  56.2506190  92.7960320
  23.1234580  56.0343360  93.7006940  22.5686190  56.6834650  92.4506290
  30.5791420  56.2569560  91.3950970  29.9800310  56.9805360  91.2114590
  31.1271030  56.1946340  90.6127420  29.1856290  54.8933100  93.4254250
  29.5785860  55.2105300  92.6122940  29.5473140  54.0144980  93.5398770
  18.4090690  55.4254020  86.8587170  18.3265360  56.3684780  87.0002160
  18.0573750  55.2828930  85.9799520  26.2088820  54.1593050  95.9257520
  26.2124880  53.7183000  95.0762060  27.1039940  54.4810380  96.0329340
  22.0591200  54.0419540  94.8851730  21.7191250  54.5194770  95.6418780
  21.2968520  53.5884660  94.5252830  26.2708970  55.1605130  88.9164280
  26.3921790  55.1191610  89.8650100  25.8857480  56.0229280  88.7611010
  25.2830470  57.4706270  88.3147580  24.7147370  57.0224520  87.6883490
  25.9919470  57.8299050  87.7812730  19.3737280  52.9638520  93.8016400
  19.0884200  52.5994190  94.6395020  19.3116140  52.2318980  93.1879540
  22.8277950  61.4664460  90.5873990  22.0540210  60.9262080  90.4272710
  23.5572580  60.9471070  90.2491750  29.0475870  51.8567780  90.5229770
  28.2340480  51.3580950  90.4475080  28.8537820  52.6966030  90.1066120
  31.7624260  56.2287430  88.8191930  32.6503880  56.5404660  88.6443270
  31.7329350  55.3559680  88.4272510  22.8715350  61.1344840  94.2252800
  23.3894020  60.3313100  94.1709690  22.4199370  61.0723980  95.0669630
  27.7584850  62.4011120  89.4980100  28.1000550  63.1453350  89.0023420
  26.9297560  62.7142240  89.8604930  34.0338530  57.5399270  88.2871790
  33.9502250  57.9713490  87.4368230  34.7532720  57.9997620  88.7198610
  35.0625780  64.3941530  91.0153920  34.4201940  63.7397150  91.2897640
  34.6756440  64.7996620  90.2394590  30.6412260  61.7226960  94.8625610
  30.9936080  61.1255090  94.2026980  29.7574590  61.3971190  95.0333860
  26.7275540  62.4824650  92.2696020  27.4146670  63.0293860  92.6503610
  25.9407960  63.0265380  92.3045630  18.8667940  58.0997470  87.7613100
  19.7362790  58.3822270  88.0449020  18.3758260  58.9133340  87.6461910
  26.0302750  59.4870680  91.8821380  26.4865530  60.2975930  92.1081570
  25.6790960  59.1693820  92.7139870  21.9314530  49.8308330  92.3543900
  21.8029160  49.8226230  93.3028820  21.1076550  50.1691420  92.0034910
  33.4523160  63.2857990  87.5530270  33.2260740  62.5688430  88.1454910
  33.0619360  63.0370430  86.7152020  19.2339190  67.3124850  88.3274730
  19.5936830  67.9114190  87.6732000  19.0931530  67.8584740  89.1009760
  33.0339410  61.2029930  89.2144430  32.7461110  61.6642620  90.0022310
  33.8291580  60.7427700  89.4828650  25.2507810  64.6956050  89.1448400
  25.2417910  65.4285740  88.5292910  24.3306170  64.4487630  89.2375360
  20.8514450  59.9170940  89.8895160  20.2442400  60.6569840  89.8990460
  21.3263800  60.0070300  89.0633360  33.7909270  53.0378700  90.3739610
  33.1622430  53.1424370  89.6597840  33.2961190  53.2575480  91.1633490
  28.2367410  64.7584290  87.8073590  28.3379390  64.5548280  86.8775570
  27.3369150  64.5042570  88.0121370  25.7593300  55.3164650  91.7897490
  25.0509450  55.7850990  92.2311100  26.0437780  54.6586660  92.4242680
  29.7908730  52.0415310  93.2293280  29.6676510  52.0601440  92.2802790
  30.7393290  52.0894250  93.3491680  26.8785520  67.2770610  92.5021260
  27.1327020  67.2392000  91.5800630  25.9298000  67.1503940  92.4949510
  23.9628320  53.6249730  89.1648200  24.8118850  54.0619880  89.0988390
  23.5959590  53.9369990  89.9920260  32.8838100  58.1962490  94.0779770
  31.9428240  58.2112720  94.2527460  33.1982170  57.4098450  94.5240070
  22.8619740  59.8782090  87.6383730  23.6283010  59.7663450  88.2009160
  22.9394430  59.1820060  86.9860500  21.5566500  57.3107160  88.3216620
  21.6370090  56.3634670  88.4334020  22.4486250  57.6414040  88.4277280
  22.3581210  67.4602550  95.4251160  23.0943690  66.9118010  95.6959730
  22.7422130  68.3258560  95.2857150  19.2426690  63.5276120  91.2992670
  18.3166470  63.7697260  91.2898080  19.7083120  64.3550380  91.1777420
  25.4683520  66.6332860  87.2476730  26.2612130  66.9221690  86.7958520
  24.9487870  66.2025030  86.5689210  34.5213690  65.8602990  88.6713470
  34.2355200  65.4468130  87.8567650  34.3233240  66.7890700  88.5513990
  25.9860920  61.8536270  87.1119080  25.8811560  61.2388620  87.8380460
  25.8185140  61.3302160  86.3282090  29.2263650  60.9156300  87.7161070
  28.6773750  61.3625600  88.3603810  29.8482910  60.4105550  88.2398740
  24.8938770  59.8747220  89.6126370  25.3155190  59.7087090  90.4557760
  25.0189610  59.0647450  89.1181510  27.4066410  58.8984830  86.8603470
  27.9272070  58.1833850  86.4944620  28.0534810  59.5370700  87.1603980
  23.7897670  55.9480450  86.5584530  23.5886730  55.0847810  86.9197870
  23.6189720  55.8613810  85.6206130  31.2685980  50.7588680  89.0871410
  31.5488270  49.9156580  89.4430830  30.4951710  50.9911790  89.6010160
  22.5880470  53.0481070  86.5462410  22.8906370  53.0548500  85.6381560
  23.3275060  52.6978930  87.0430070  25.8065400  51.9915690  87.5318610
  25.4587400  51.3139680  86.9521060  26.0078170  51.5305200  88.3462000
  27.9714440  66.9796440  89.1505210  28.8665230  67.3181410  89.1723970
  28.0032070  66.2575850  88.5229490  21.6110600  62.3523490  87.3792210
  22.0485470  62.8953160  88.0349790  22.0958330  61.5270440  87.3888550
  18.8256400  65.1412520  94.8312470  19.1559410  64.2733580  94.5991110
  19.2547400  65.3471040  95.6617430  23.4218320  63.4721530  92.4914440
  23.1213860  63.3486500  93.3918350  23.3155810  62.6130120  92.0830170
  36.1910240  63.2517930  87.1941120  35.3603200  63.3194580  87.6648350
  36.3682070  64.1422050  86.8907980  35.6466700  59.9965410  89.6975320
  36.4085610  60.5662060  89.8035010  35.6621070  59.4292610  90.4683630
  19.1471040  58.5203340  93.9282980  18.4919880  58.2514980  93.2842680
  19.9848990  58.4107820  93.4784960  36.6526670  60.8515510  94.5417250
  37.0235500  60.0682830  94.1353220  37.2928600  61.5404610  94.3634550
  35.6985870  60.2899780  86.8547840  35.9734710  61.1978660  86.7267060
  35.5096610  60.2262310  87.7909830  32.0961480  53.3144630  88.1501470
  32.5146360  53.1275610  87.3098130  31.7897540  52.4623680  88.4604400
  35.5951210  58.2268770  91.8477270  35.2194810  57.4596700  91.4158560
  34.8654330  58.6091470  92.3352200  18.3609120  55.7302270  89.8708310
  17.4573200  55.9932470  89.6959970  18.8449740  56.0013440  89.0908270
  34.8702170  56.4526260  95.1484510  35.3939650  55.9588910  94.5174680
  35.4561590  56.5876620  95.8932080  20.9036330  54.7867810  87.7802690
  21.6128030  54.3651030  87.2949970  20.1876270  54.8543040  87.1486040
  20.5510490  50.8407140  86.8205340  21.2738620  51.3816080  87.1386560
  20.8235010  50.5670560  85.9446880  34.3602140  55.7099610  91.0876920
  34.8561260  55.4770480  91.8725800  34.1618210  54.8711450  90.6714560
  35.7889300  54.3460560  93.6214600  35.6788580  54.1916600  94.5596870
  36.5496890  53.8181500  93.3790010  36.6779570  52.1768480  86.8620740
  37.6028880  52.0449660  86.6539030  36.6555360  52.2561300  87.8157190
  36.7518060  52.9479140  89.4877450  35.9569560  52.8824260  90.0170360
  36.9561340  53.8829780  89.4762800  33.6936480  66.9870690  93.4815840
  34.2895550  66.6655260  92.8050260  33.9514630  66.5142510  94.2729110
  33.1837990  51.2776020  95.9376280  33.6246080  51.2221120  95.0897880
  32.9145580  52.1934030  96.0086460  35.0476560  50.9091260  93.9485100
  34.9864960  49.9652480  93.8016120  35.8268590  51.0171350  94.4938560
  19.3529310  67.0483620  92.9109050  19.1851350  66.4154300  93.6090940
  18.4863820  67.2543020  92.5603240  19.9757330  50.8800400  90.4140910
  20.7336690  50.9929280  89.8404940  19.5134500  51.7169600  90.3684340
  26.5171140  52.9939670  93.4043220  25.7045650  52.6196560  93.0639100
  27.0212780  52.2384750  93.7064410  31.0196120  49.6582120  94.6426290
  31.6225490  50.2302330  95.1174810  30.2789110  50.2221560  94.4200190
  34.1630720  50.0603680  89.9166570  34.3581350  50.9587130  90.1834000
  33.3760590  49.8290760  90.4099520  20.9592010  65.7416850  90.3559190
  20.4339630  66.1224880  89.6521150  20.8836590  66.3667620  91.0768900
  22.3482480  51.4064450  88.9542880  22.8775240  50.6194250  88.8250830
  22.9810800  52.0855640  89.1878410  24.5420320  51.1439590  92.0088270
  23.9123060  50.4426900  92.1758400  24.0025460  51.9043720  91.7921430
  35.7157330  67.3004390  91.6773130  35.8909520  66.6142130  91.0334050
  35.0178900  67.8251440  91.2849800  23.5584980  67.6899230  89.2308440
  24.2903800  67.4058510  88.6832330  23.8178650  67.4512510  90.1207820
  22.7199770  63.8063960  89.2354770  22.0908650  64.2749060  89.7840600
  22.8347600  62.9613180  89.6700960  30.1749490  57.8569620  75.3855970
  30.0943540  56.9424230  75.1147680  29.7613910  58.3536690  74.6795680
  28.3067530  59.6348640  77.2665240  27.5309630  59.1549080  77.5563810
  28.9580460  58.9554290  77.0921400  22.3233360  59.9468450  78.1441000
  21.4918240  59.6917160  78.5437510  22.9314340  60.0179220  78.8798920
  32.3274960  64.0408830  76.0464370  31.8656490  63.2696070  76.3751540
  33.1400510  64.0674900  76.5516820  22.3034620  63.9808540  78.3399020
  22.6062660  63.0906280  78.1609240  23.0478210  64.5378760  78.1121270
  20.7325310  54.9070340  71.9283390  19.8442010  55.2486310  71.8263270
  21.0166500  54.7070660  71.0364220  18.6958320  57.5075990  77.8123090
  19.2674430  56.7398190  77.8126730  18.6959860  57.8064750  76.9029700
  28.5538270  66.3266840  75.6668360  27.9349710  66.7824340  75.0962800
  29.4090050  66.4818300  75.2658060  27.7476520  62.3105830  77.2735400
  27.6784800  61.3695770  77.1124530  28.5096380  62.4007240  77.8457970
  19.9383190  52.9160350  79.5992020  19.7586030  52.0186100  79.8794780
  19.5363270  53.4632220  80.2738970  28.7781690  55.1176210  77.5004330
  29.1546510  54.2448090  77.3878000  28.6801200  55.4534910  76.6094770
  22.9086700  53.4901840  72.9621770  23.0153450  54.3905570  73.2690530
  21.9979060  53.4419810  72.6716420  32.5605810  52.6126650  74.4332670
  33.3815430  52.1223220  74.4758150  32.5939890  53.2024310  75.1864510
  20.5569860  55.4120850  78.2074360  21.2379970  55.6759220  78.8261760
  20.2417910  54.5721720  78.5412370  24.7494430  56.4588210  77.2946950
  25.2572650  56.9569180  77.9351970  25.2807670  55.6823410  77.1186310
  36.8505360  54.6293400  80.9976300  36.1457530  55.0175110  80.4791410
  37.1163280  55.3243690  81.5997230  23.0330530  51.0986770  81.5610370
  23.0348970  51.6159160  80.7556270  22.2034840  50.6216950  81.5380300
  29.4201620  61.2106080  73.0600270  28.8018890  61.6755530  72.4962990
  29.9324870  61.9033560  73.4769780  24.2833380  60.7381950  79.7383870
  23.9502760  61.3650870  80.3804940  24.4600060  61.2643830  78.9585540
  32.7967290  54.5527030  77.2060210  32.0922860  54.8411920  77.7863320
  33.1579450  55.3627140  76.8459770  22.7145860  52.8096730  79.5680820
  23.0562670  53.6538780  79.2734690  21.7761670  52.9580470  79.6846160
  23.4952480  62.7062750  81.5533050  24.1126480  63.3813830  81.2717500
  22.6345600  63.1150730  81.4620550  18.7884820  61.8962610  70.4339900
  18.4112800  62.3849710  69.7024800  19.0457890  62.5687890  71.0646430
  34.4130070  64.1702160  79.4687690  33.7293590  64.8401270  79.4604360
  34.9524360  64.3682810  78.7032550  35.8654210  53.9981820  77.5969420
  34.9179120  54.0320800  77.7284850  36.1904200  54.8120770  77.9818780
  26.3973750  50.2979000  75.8925410  26.7048730  49.7425890  75.1760910
  25.4674450  50.4323460  75.7098400  31.9488810  66.0146290  78.1832870
  31.9615970  65.6108580  77.3155130  31.3964030  66.7893580  78.0794300
  33.2434230  62.7362510  73.2723040  33.1330560  61.7936840  73.3972460
  33.2402480  63.0978150  74.1585800  31.3474250  60.9176130  79.5115480
  31.7643040  60.7036240  78.6768940  32.0714070  61.1748920  80.0824100
  28.7854510  58.3627830  72.6285530  27.8583790  58.2965210  72.8574000
  28.9379330  59.3007960  72.5140770  28.7723590  54.6344830  69.6252690
  27.8327260  54.7958790  69.7105150  29.0906850  55.3530510  69.0788680
  35.2936350  59.3163350  79.6031720  34.4654980  59.3856440  79.1281850
  35.8886830  59.9017660  79.1347550  32.8151800  59.9248130  73.1320780
  32.1964220  59.5867680  72.4847080  32.7976250  59.2807890  73.8399970
  32.2578360  56.1032670  80.5486590  31.8449540  56.9286380  80.8026580
  31.5254310  55.5177710  80.3562950  24.3911150  58.8892570  75.4105260
  23.9868150  58.1769820  74.9151160  24.4774270  58.5445810  76.2993300
  24.8592850  62.5760130  77.5744470  24.5621140  61.9705600  76.8952250
  25.8092670  62.6137440  77.4633830  23.1039770  55.6635780  79.1904300
  23.6554360  55.7731120  78.4157550  23.6183280  56.0373380  79.9059530
  32.9478460  66.1492000  81.2367570  32.4709020  66.9564190  81.0440180
  32.2640250  65.4970330  81.3893780  23.9511280  62.3141820  84.2252270
  23.0539810  62.5381790  84.4725670  23.9764150  62.4376760  83.2763670
  30.9916500  59.1634940  70.1393530  31.4309780  58.3257370  69.9931350
  31.7044920  59.7964340  70.2257670  22.7782500  59.1855140  82.8009640
  22.6390270  60.0577940  83.1697040  21.8963860  58.8427950  82.6557580
  29.1011880  64.1031010  74.1074770  29.5407790  64.8455340  73.6930160
  29.0398770  64.3457580  75.0313730  24.5762850  65.1276840  85.0094790
  24.5478280  65.5319790  84.1423220  24.4127820  64.1987200  84.8466390
  34.5733640  50.4177750  68.4534570  34.2606300  50.5104580  69.3533640
  35.3346110  50.9958780  68.4032000  21.0915780  57.7837550  72.9111910
  20.9713380  58.5099640  72.2993180  20.7816670  57.0140460  72.4339820
  36.5277670  65.9103940  86.3058960  37.0037390  66.3886830  86.9848040
  37.1484830  65.8421430  85.5804460  18.7301150  60.9552690  78.7180550
  18.8081570  61.0901460  77.7736270  19.3442830  60.2468580  78.9108670
  19.9748780  62.6552880  75.1286730  19.5676860  62.7967470  74.2740330
  20.8661790  62.3713040  74.9257940  35.9310920  63.1016790  83.4658970
  36.0573980  62.8628670  82.5476150  35.9732300  62.2701330  83.9381050
  29.7927660  66.8044790  82.0353780  30.3072330  66.7152800  82.8376210
  28.9496740  67.1504490  82.3281690  31.7682060  67.0900130  71.4637780
  31.6083200  66.8003070  72.3619610  31.6028770  66.3140260  70.9283010
  24.2470440  66.8698660  73.2409400  24.0712920  65.9534200  73.0277200
  23.3926180  67.2285950  73.4807200  31.4708190  64.5987690  70.0235780
  30.7773350  64.5964980  69.3638060  32.2131050  64.1747010  69.5929950
  31.0358120  66.2250400  74.0984270  31.4915070  65.4439780  74.4122890
  31.3750640  66.9357220  74.6425450  35.7834930  55.1549250  84.4308710
  35.1679200  55.6628920  83.9024170  35.4631350  54.2547580  84.3734650
  18.7860670  61.9966860  81.2575010  18.9491710  61.5272220  80.4394380
  19.2513120  61.4890420  81.9223850  23.5579440  51.1272620  76.2935580
  23.1147590  51.9082160  75.9620100  24.1164430  51.4502510  77.0006520
  27.8449250  53.9941140  81.8970900  27.3828620  54.2024160  82.7090840
  27.4427360  53.1800490  81.5941570  32.8453760  55.2150090  83.0267560
  31.9947350  54.9155840  83.3476630  32.6855550  55.4592100  82.1151380
  29.9403470  56.7151840  85.1266350  30.2656880  55.8815590  84.7868580
  30.7283800  57.2380360  85.2744680  26.6738260  50.7483320  71.1741410
  26.0492440  50.7443190  71.8994720  26.5868380  49.8814280  70.7777380
  25.5955340  51.6719950  78.1525180  25.8927670  52.5782780  78.0717200
  26.1440900  51.1838730  77.5384750  23.3493660  56.2506190  74.0216830
  23.1234580  56.0343360  74.9263450  22.5686190  56.6834650  73.6762800
  30.5791420  56.2569560  72.6207480  29.9800310  56.9805360  72.4371100
  31.1271030  56.1946340  71.8383930  25.7892870  57.1491770  84.6877100
  25.6936470  56.2086500  84.5377500  26.6324850  57.3706840  84.2925170
  29.1856290  54.8933100  74.6510760  29.5785860  55.2105300  73.8379450
  29.5473140  54.0144980  74.7655280  20.9203410  53.5605440  82.8410880
  20.5266800  54.4080650  83.0483660  20.2321810  52.9231810  83.0319520
  27.4948460  53.6440410  85.9107620  26.8046780  53.4512610  86.5453710
  28.2380760  53.9275050  86.4431920  18.2220460  51.4833900  76.8740960
  17.9333510  52.0536760  77.5865940  18.9666220  51.0038350  77.2372190
  18.4090690  55.4254020  68.0843680  18.3265360  56.3684780  68.2258670
  18.0573750  55.2828930  67.2056030  29.7711430  57.4838850  78.7461540
  29.0392550  57.9925660  79.0951640  29.3735770  56.6668830  78.4450320
  26.2088820  54.1593050  77.1514030  26.2124880  53.7183000  76.3018570
  27.1039940  54.4810380  77.2585850  22.0591200  54.0419540  76.1108240
  21.7191250  54.5194770  76.8675290  21.2968520  53.5884660  75.7509340
  26.2708970  55.1605130  70.1420790  26.3921790  55.1191610  71.0906610
  25.8857480  56.0229280  69.9867520  30.2337340  52.9372530  78.1584480
  30.2510080  53.3881180  79.0026330  29.9852920  52.0378170  78.3717920
  25.2830470  57.4706270  69.5404090  24.7147370  57.0224520  68.9140000
  25.9919470  57.8299050  69.0069240  33.6608090  50.3504710  83.9970860
  33.9853860  49.6194370  84.5228840  33.6964600  50.0318350  83.0951850
  20.3599650  61.3718290  83.4170820  19.9754440  60.7311960  84.0153780
  20.6711840  62.0754410  83.9865550  26.5096790  58.2194830  78.8979440
  26.8766920  57.7453400  79.6440780  26.3201850  59.0936400  79.2387780
  19.3737280  52.9638520  75.0272910  19.0884200  52.5994190  75.8651530
  19.3116140  52.2318980  74.4136050  24.2996160  57.2603470  81.2163650
  23.9953230  58.1395450  81.4414010  25.2542620  57.3203260  81.2521090
  22.8277950  61.4664460  71.8130500  22.0540210  60.9262080  71.6529220
  23.5572580  60.9471070  71.4748260  33.5865930  60.4629820  77.6056890
  34.3065050  60.9585110  77.2153000  33.3847750  59.7847710  76.9610760
  29.0475870  51.8567780  71.7486280  28.2340480  51.3580950  71.6731590
  28.8537820  52.6966030  71.3322630  28.9684730  60.5338880  83.4925890
  28.9022040  59.6134550  83.2383480  28.3389870  60.6314320  84.2070530
  31.7624260  56.2287430  70.0448440  32.6503880  56.5404660  69.8699780
  31.7329350  55.3559680  69.6529020  22.8715350  61.1344840  75.4509310
  23.3894020  60.3313100  75.3966200  22.4199370  61.0723980  76.2926140
  27.7584850  62.4011120  70.7236610  28.1000550  63.1453350  70.2279930
  26.9297560  62.7142240  71.0861440  20.3559890  58.1006210  82.3635010
  19.9974830  58.7660060  82.9508350  20.0614450  57.2689760  82.7347630
  23.5573010  58.5590450  85.2474560  23.2573150  58.7047630  84.3502380
  24.3284250  57.9995740  85.1547950  28.9001460  63.3559450  83.2429690
  28.9146000  62.4240410  83.0248600  28.1926560  63.4419210  83.8819460
  34.0338530  57.5399270  69.5128300  33.9502250  57.9713490  68.6624740
  34.7532720  57.9997620  69.9455120  35.1112670  59.9966790  82.5898270
  34.3860860  60.5895570  82.3927660  35.6388130  59.9890330  81.7911640
  35.0625780  64.3941530  72.2410430  34.4201940  63.7397150  72.5154150
  34.6756440  64.7996620  71.4651100  30.6412260  61.7226960  76.0882120
  30.9936080  61.1255090  75.4283490  29.7574590  61.3971190  76.2590370
  26.7275540  62.4824650  73.4952530  27.4146670  63.0293860  73.8760120
  25.9407960  63.0265380  73.5302140  18.8667940  58.0997470  68.9869610
  19.7362790  58.3822270  69.2705530  18.3758260  58.9133340  68.8718420
  26.0302750  59.4870680  73.1077890  26.4865530  60.2975930  73.3338080
  25.6790960  59.1693820  73.9396380  28.3335360  64.9977020  80.3370190
  28.9777580  65.2036400  81.0143610  28.6964800  64.2365420  79.8841040
  21.9314530  49.8308330  73.5800410  21.8029160  49.8226230  74.5285330
  21.1076550  50.1691420  73.2291420  29.6067440  63.0009370  79.0547640
  30.2489670  62.3002530  79.1679810  30.1316790  63.7807810  78.8744530
  33.4523160  63.2857990  68.7786780  33.2260740  62.5688430  69.3711420
  33.0619360  63.0370430  67.9408530  31.3805060  63.8004270  82.2583700
  31.7161300  64.3870960  82.9361620  30.4605400  63.6696980  82.4881490
  19.2339190  67.3124850  69.5531240  19.5936830  67.9114190  68.8988510
  19.0931530  67.8584740  70.3266270  18.9308460  51.5899450  83.0407110
  18.2166980  51.7896370  83.6459720  19.3503500  50.8139020  83.4121910
  33.0339410  61.2029930  70.4400940  32.7461110  61.6642620  71.2278820
  33.8291580  60.7427700  70.7085160  19.2181050  65.5779710  84.0273640
  19.3272170  64.6374450  83.8869030  18.5661610  65.8434460  83.3787370
  27.2093640  63.8495600  85.4271760  26.8890510  63.1304840  85.9717450
  26.5352000  64.5250670  85.5007820  25.2507810  64.6956050  70.3704910
  25.2417910  65.4285740  69.7549420  24.3306170  64.4487630  70.4631870
  20.8514450  59.9170940  71.1151670  20.2442400  60.6569840  71.1246970
  21.3263800  60.0070300  70.2889870  30.4247240  54.0821760  80.7908560
  30.7928060  53.2616970  81.1188130  29.5645440  54.1423650  81.2064210
  33.7909270  53.0378700  71.5996120  33.1622430  53.1424370  70.8854350
  33.2961190  53.2575480  72.3890000  28.2367410  64.7584290  69.0330100
  28.3379390  64.5548280  68.1032080  27.3369150  64.5042570  69.2377880
  25.7593300  55.3164650  73.0154000  25.0509450  55.7850990  73.4567610
  26.0437780  54.6586660  73.6499190  27.3849230  56.7361350  81.0146530
  27.8834480  57.2107170  81.6798380  27.5272180  55.8124870  81.2216560
  29.7908730  52.0415310  74.4549790  29.6676510  52.0601440  73.5059300
  30.7393290  52.0894250  74.5748190  26.8785520  67.2770610  73.7277770
  27.1327020  67.2392000  72.8057140  25.9298000  67.1503940  73.7206020
  23.9628320  53.6249730  70.3904710  24.8118850  54.0619880  70.3244900
  23.5959590  53.9369990  71.2176770  34.5916090  52.9529310  81.8574920
  34.0889690  53.6934710  82.1968730  35.4072750  53.3413310  81.5411710
  32.8838100  58.1962490  75.3036280  31.9428240  58.2112720  75.4783970
  33.1982170  57.4098450  75.7496580  22.8619740  59.8782090  68.8640240
  23.6283010  59.7663450  69.4265670  22.9394430  59.1820060  68.2117010
  21.5566500  57.3107160  69.5473130  21.6370090  56.3634670  69.6590530
  22.4486250  57.6414040  69.6533790  34.8863680  65.3671340  76.9790540
  35.0111100  66.1902510  77.4514350  35.7529240  65.1562070  76.6314690
  22.3581210  67.4602550  76.6507670  23.0943690  66.9118010  76.9216240
  22.7422130  68.3258560  76.5113660  19.2426690  63.5276120  72.5249180
  18.3166470  63.7697260  72.5154590  19.7083120  64.3550380  72.4033930
  21.3639490  66.6448620  85.8393250  22.1652220  66.9660670  86.2528650
  20.8491310  66.2844200  86.5613160  25.4683520  66.6332860  68.4733240
  26.2612130  66.9221690  68.0215030  24.9487870  66.2025030  67.7945720
  30.2004120  62.7528490  85.7868660  29.5942280  62.7760090  85.0464410
  29.8958230  62.0211530  86.3235910  31.6304490  66.4808780  84.3978070
  32.5826240  66.3966800  84.3478310  31.4832710  67.1450490  85.0711860
  34.5213690  65.8602990  69.8969980  34.2355200  65.4468130  69.0824160
  34.3233240  66.7890700  69.7770500  19.0837300  59.1322080  84.7829300
  19.5876320  58.5529360  85.3545530  18.3444720  59.4162310  85.3205670
  25.9860920  61.8536270  68.3375590  25.8811560  61.2388620  69.0636970
  25.8185140  61.3302160  67.5538600  26.1375240  60.5393070  84.3164820
  25.3720910  61.1078070  84.2319490  26.3191200  60.2469280  83.4233050
  29.2263650  60.9156300  68.9417580  28.6773750  61.3625600  69.5860320
  29.8482910  60.4105550  69.4655250  33.2798590  62.2698400  84.8739840
  34.0208060  62.6074160  84.3707300  32.5171270  62.4390460  84.3209610
  21.1160380  57.2751670  85.6779370  21.1565720  56.9765540  86.5864600
  21.9705880  57.6759280  85.5186890  24.8938770  59.8747220  70.8382880
  25.3155190  59.7087090  71.6814270  25.0189610  59.0647450  70.3438020
  23.0566190  55.8543770  83.6453860  22.5262650  55.3634720  83.0177200
  23.7254260  56.2827970  83.1111790  27.4066410  58.8984830  68.0859980
  27.9272070  58.1833850  67.7201130  28.0534810  59.5370700  68.3860490
  31.9544250  60.3213230  83.4095050  32.3685270  60.4758310  84.2585470
  31.0195250  60.4468450  83.5720830  32.4266420  57.6609390  85.4134200
  33.0087190  56.9061710  85.3254680  32.6028190  58.1916830  84.6365680
  23.5438490  52.8206140  83.7251150  23.4495360  52.2026890  83.0002020
  22.9635880  53.5472430  83.4981060  26.3099930  51.3779380  80.7578540
  25.8617230  51.4003640  79.9124090  25.6765130  50.9798400  81.3548840
  26.7159480  60.2733710  81.3790980  27.1347590  61.1166440  81.2067220
  25.7968110  60.4105750  81.1497760  29.0523380  58.0049890  82.7628820
  29.1719590  57.4091030  83.5023660  29.9117380  58.0419580  82.3430120
  31.3911280  58.5587080  81.3391330  30.8646500  59.0829700  80.7356470
  31.7342620  59.1914470  81.9701060  23.7897670  55.9480450  67.7841040
  23.5886730  55.0847810  68.1454380  23.6189720  55.8613810  66.8462640
  24.5666900  66.5786720  82.4948710  24.0287990  67.3032780  82.1757410
  24.8200860  66.1017060  81.7046050  25.8192150  54.5471240  84.0204640
  26.4091840  54.2387090  84.7082460  25.0012390  54.0750990  84.1764540
  30.6385580  54.1637050  84.2537660  29.9501100  53.5018590  84.1887650
  31.3591600  53.7175320  84.6986120  31.2685980  50.7588680  70.3127920
  31.5488270  49.9156580  70.6687340  30.4951710  50.9911790  70.8266670
  22.5880470  53.0481070  67.7718920  22.8906370  53.0548500  66.8638070
  23.3275060  52.6978930  68.2686580  27.4229110  67.8137930  82.7535360
  27.3487810  68.7173070  83.0607730  26.5207950  67.4949830  82.7257430
  25.8065400  51.9915690  68.7575120  25.4587400  51.3139680  68.1777570
  26.0078170  51.5305200  69.5718510  27.9714440  66.9796440  70.3761720
  28.8665230  67.3181410  70.3980480  28.0032070  66.2575850  69.7486000
  21.6110600  62.3523490  68.6048720  22.0485470  62.8953160  69.2606300
  22.0958330  61.5270440  68.6145060  18.8256400  65.1412520  76.0568980
  19.1559410  64.2733580  75.8247620  19.2547400  65.3471040  76.8873940
  23.4218320  63.4721530  73.7170950  23.1213860  63.3486500  74.6174860
  23.3155810  62.6130120  73.3086680  19.3146610  66.0083110  78.7950610
  18.8777600  66.1883910  79.6274760  19.8824290  66.7657730  78.6532330
  34.9508790  65.5100110  83.0827920  34.3510780  65.5692670  82.3391840
  35.0802690  64.5705090  83.2124770  36.1910240  63.2517930  68.4197630
  35.3603200  63.3194580  68.8904860  36.3682070  64.1422050  68.1164490
  35.6466700  59.9965410  70.9231830  36.4085610  60.5662060  71.0291520
  35.6621070  59.4292610  71.6940140  19.1471040  58.5203340  75.1539490
  18.4919880  58.2514980  74.5099190  19.9848990  58.4107820  74.7041470
  36.6526670  60.8515510  75.7673760  37.0235500  60.0682830  75.3609730
  37.2928600  61.5404610  75.5891060  33.6360430  62.2352090  81.1804080
  32.8220270  62.6649250  81.4429870  34.0434630  62.8470500  80.5673130
  35.6985870  60.2899780  68.0804350  35.9734710  61.1978660  67.9523570
  35.5096610  60.2262310  69.0166340  32.0961480  53.3144630  69.3757980
  32.5146360  53.1275610  68.5354640  31.7897540  52.4623680  69.6860910
  35.5951210  58.2268770  73.0733780  35.2194810  57.4596700  72.6415070
  34.8654330  58.6091470  73.5608710  20.1846970  58.9055910  79.6942830
  20.5520010  58.8183310  80.5738850  19.6157790  58.1422460  79.5949690
  34.9850830  57.3740290  82.7073300  34.7536920  57.1453040  81.8071250
  35.2455380  58.2939840  82.6618190  19.7362970  55.8165000  83.6001250
  18.8419020  55.7831760  83.9394960  20.2760520  56.0151790  84.3652500
  33.4238900  52.5996720  85.4853000  34.3009080  52.6080120  85.8687000
  33.4359740  51.8627560  84.8745350  18.3609120  55.7302270  71.0964820
  17.4573200  55.9932470  70.9216480  18.8449740  56.0013440  70.3164780
  34.8702170  56.4526260  76.3741020  35.3939650  55.9588910  75.7431190
  35.4561590  56.5876620  77.1188590  35.0491890  56.5366130  79.8960570
  34.0994600  56.5029670  80.0105560  35.2304900  57.4466240  79.6610340
  20.9036330  54.7867810  69.0059200  21.6128030  54.3651030  68.5206480
  20.1876270  54.8543040  68.3742550  20.5510490  50.8407140  68.0461850
  21.2738620  51.3816080  68.3643070  20.8235010  50.5670560  67.1703390
  34.3602140  55.7099610  72.3133430  34.8561260  55.4770480  73.0982310
  34.1618210  54.8711450  71.8971070  20.2402680  50.0913330  77.9484470
  20.8878870  49.5410710  77.5079630  20.6604520  50.3456480  78.7700280
  35.7889300  54.3460560  74.8471110  35.6788580  54.1916600  75.7853380
  36.5496890  53.8181500  74.6046520  34.1355020  50.2854690  81.3054110
  34.7727240  50.8988830  81.6713300  34.2829910  50.3215350  80.3603340
  36.6779570  52.1768480  68.0877250  37.6028880  52.0449660  67.8795540
  36.6555360  52.2561300  69.0413700  36.7518060  52.9479140  70.7133960
  35.9569560  52.8824260  71.2426870  36.9561340  53.8829780  70.7019310
  33.6936480  66.9870690  74.7072350  34.2895550  66.6655260  74.0306770
  33.9514630  66.5142510  75.4985620  19.9934680  50.2469000  80.6909790
  19.6449500  50.7032820  81.4567970  19.6622380  49.3526130  80.7732220
  21.5999050  63.4188600  84.8562980  21.5568680  63.0481510  85.7377440
  21.7310060  64.3566170  84.9964800  25.3005080  64.9748190  80.4572700
  25.0596440  65.2422750  79.5703220  26.2407720  65.1453920  80.5123560
  27.5059500  51.4380880  84.2129210  27.4448390  52.0302710  84.9624620
  28.4459880  51.3306840  84.0679470  30.1434060  51.0950940  83.8521500
  30.7574470  51.4130230  83.1902580  30.6883620  50.6099530  84.4717360
  36.5609240  66.9942570  81.2583340  36.0667520  67.3911440  80.5410470
  35.9522530  66.3691780  81.6520620  20.6655320  49.7745200  83.9660560
  21.2138310  49.5933250  83.2026670  20.7310630  48.9839310  84.5016870
  21.4387080  66.3650850  81.9760760  20.8447400  66.2335550  82.7150800
  21.4310920  65.5288990  81.5102860  30.8842100  49.6583080  80.1790790
  30.0101940  49.9918190  79.9763720  30.7752850  49.1856260  81.0042660
  31.7914080  51.8653950  81.5632510  31.4627440  51.0505710  81.1834240
  32.7396380  51.8223760  81.4398200  34.2448690  67.6365990  78.5370080
  33.7851660  68.3881800  78.1628100  33.6161150  66.9172460  78.4784880
  21.0699310  63.7309230  80.9268800  20.3433370  63.1114520  80.8594750
  21.1308460  64.1249840  80.0566880  24.6744410  65.9454230  77.7118210
  25.1909430  65.3341590  77.1866470  25.3241790  66.4483010  78.2029220
  27.4139910  66.8362720  78.5387190  27.7017720  66.5817020  77.6620200
  27.9263130  66.2840080  79.1292760  28.6316920  50.5752920  79.1183700
  27.8488710  51.0498420  79.3980460  28.3379850  49.6707750  79.0096880
  33.1837990  51.2776020  77.1632790  33.6246080  51.2221120  76.3154390
  32.9145580  52.1934030  77.2342970  35.0476560  50.9091260  75.1741610
  34.9864960  49.9652480  75.0272630  35.8268590  51.0171350  75.7195070
  19.3529310  67.0483620  74.1365560  19.1851350  66.4154300  74.8347450
  18.4863820  67.2543020  73.7859750  19.9757330  50.8800400  71.6397420
  20.7336690  50.9929280  71.0661450  19.5134500  51.7169600  71.5940850
  26.5171140  52.9939670  74.6299730  25.7045650  52.6196560  74.2895610
  27.0212780  52.2384750  74.9320920  31.0196120  49.6582120  75.8682800
  31.6225490  50.2302330  76.3431320  30.2789110  50.2221560  75.6456700
  34.1630720  50.0603680  71.1423080  34.3581350  50.9587130  71.4090510
  33.3760590  49.8290760  71.6356030  20.9592010  65.7416850  71.5815700
  20.4339630  66.1224880  70.8777660  20.8836590  66.3667620  72.3025410
  22.3482480  51.4064450  70.1799390  22.8775240  50.6194250  70.0507340
  22.9810800  52.0855640  70.4134920  24.5420320  51.1439590  73.2344780
  23.9123060  50.4426900  73.4014910  24.0025460  51.9043720  73.0177940
  27.4812270  67.7578820  85.9055390  28.4079580  67.5223090  85.9491350
  27.4662700  68.5850820  85.4241420  35.7157330  67.3004390  72.9029640
  35.8909520  66.6142130  72.2590560  35.0178900  67.8251440  72.5106310
  24.6675880  50.4223570  85.6697270  24.3860150  50.9257170  84.9058090
  25.0495580  49.6245320  85.3039400  23.5584980  67.6899230  70.4564950
  24.2903800  67.4058510  69.9088840  23.8178650  67.4512510  71.3464330
  22.7199770  63.8063960  70.4611280  22.0908650  64.2749060  71.0097110
  22.8347600  62.9613180  70.8957470  31.2691340  49.8377150  86.2477740
  31.1556790  50.1571760  87.1429260  32.0861080  50.2389660  85.9515020
  34.0489830  66.9848680  85.7296430  34.8415150  66.4897910  85.5222390
  34.3422980  67.6638820  86.3372040  30.1749490  57.8569620  56.6112480
  30.0943540  56.9424230  56.3404190  29.7613910  58.3536690  55.9052190
  28.3067530  59.6348640  58.4921750  27.5309630  59.1549080  58.7820320
  28.9580460  58.9554290  58.3177910  22.3233360  59.9468450  59.3697510
  21.4918240  59.6917160  59.7694020  22.9314340  60.0179220  60.1055430
  32.3274960  64.0408830  57.2720880  31.8656490  63.2696070  57.6008050
  33.1400510  64.0674900  57.7773330  22.3034620  63.9808540  59.5655530
  22.6062660  63.0906280  59.3865750  23.0478210  64.5378760  59.3377780
  20.7325310  54.9070340  53.1539900  19.8442010  55.2486310  53.0519780
  21.0166500  54.7070660  52.2620730  18.6958320  57.5075990  59.0379600
  19.2674430  56.7398190  59.0383240  18.6959860  57.8064750  58.1286210
  28.5538270  66.3266840  56.8924870  27.9349710  66.7824340  56.3219310
  29.4090050  66.4818300  56.4914570  27.7476520  62.3105830  58.4991910
  27.6784800  61.3695770  58.3381040  28.5096380  62.4007240  59.0714480
  19.9383190  52.9160350  60.8248530  19.7586030  52.0186100  61.1051290
  19.5363270  53.4632220  61.4995480  28.7781690  55.1176210  58.7260840
  29.1546510  54.2448090  58.6134510  28.6801200  55.4534910  57.8351280
  22.9086700  53.4901840  54.1878280  23.0153450  54.3905570  54.4947040
  21.9979060  53.4419810  53.8972930  32.5605810  52.6126650  55.6589180
  33.3815430  52.1223220  55.7014660  32.5939890  53.2024310  56.4121020
  20.5569860  55.4120850  59.4330870  21.2379970  55.6759220  60.0518270
  20.2417910  54.5721720  59.7668880  24.7494430  56.4588210  58.5203460
  25.2572650  56.9569180  59.1608480  25.2807670  55.6823410  58.3442820
  36.8505360  54.6293400  62.2232810  36.1457530  55.0175110  61.7047920
  37.1163280  55.3243690  62.8253740  23.0330530  51.0986770  62.7866880
  23.0348970  51.6159160  61.9812780  22.2034840  50.6216950  62.7636810
  29.4201620  61.2106080  54.2856780  28.8018890  61.6755530  53.7219500
  29.9324870  61.9033560  54.7026290  24.2833380  60.7381950  60.9640380
  23.9502760  61.3650870  61.6061450  24.4600060  61.2643830  60.1842050
  32.7967290  54.5527030  58.4316720  32.0922860  54.8411920  59.0119830
  33.1579450  55.3627140  58.0716280  22.7145860  52.8096730  60.7937330
  23.0562670  53.6538780  60.4991200  21.7761670  52.9580470  60.9102670
  23.4952480  62.7062750  62.7789560  24.1126480  63.3813830  62.4974010
  22.6345600  63.1150730  62.6877060  18.7884820  61.8962610  51.6596410
  18.4112800  62.3849710  50.9281310  19.0457890  62.5687890  52.2902940
  34.4130070  64.1702160  60.6944200  33.7293590  64.8401270  60.6860870
  34.9524360  64.3682810  59.9289060  35.8654210  53.9981820  58.8225930
  34.9179120  54.0320800  58.9541360  36.1904200  54.8120770  59.2075290
  26.3973750  50.2979000  57.1181920  26.7048730  49.7425890  56.4017420
  25.4674450  50.4323460  56.9354910  31.9488810  66.0146290  59.4089380
  31.9615970  65.6108580  58.5411640  31.3964030  66.7893580  59.3050810
  33.2434230  62.7362510  54.4979550  33.1330560  61.7936840  54.6228970
  33.2402480  63.0978150  55.3842310  31.3474250  60.9176130  60.7371990
  31.7643040  60.7036240  59.9025450  32.0714070  61.1748920  61.3080610
  28.7854510  58.3627830  53.8542040  27.8583790  58.2965210  54.0830510
  28.9379330  59.3007960  53.7397280  28.7723590  54.6344830  50.8509200
  27.8327260  54.7958790  50.9361660  29.0906850  55.3530510  50.3045190
  35.2936350  59.3163350  60.8288230  34.4654980  59.3856440  60.3538360
  35.8886830  59.9017660  60.3604060  32.8151800  59.9248130  54.3577290
  32.1964220  59.5867680  53.7103590  32.7976250  59.2807890  55.0656480
  32.2578360  56.1032670  61.7743100  31.8449540  56.9286380  62.0283090
  31.5254310  55.5177710  61.5819460  24.3911150  58.8892570  56.6361770
  23.9868150  58.1769820  56.1407670  24.4774270  58.5445810  57.5249810
  24.8592850  62.5760130  58.8000980  24.5621140  61.9705600  58.1208760
  25.8092670  62.6137440  58.6890340  23.1039770  55.6635780  60.4160810
  23.6554360  55.7731120  59.6414060  23.6183280  56.0373380  61.1316040
  32.9478460  66.1492000  62.4624080  32.4709020  66.9564190  62.2696690
  32.2640250  65.4970330  62.6150290  23.9511280  62.3141820  65.4508780
  23.0539810  62.5381790  65.6982180  23.9764150  62.4376760  64.5020180
  30.9916500  59.1634940  51.3650040  31.4309780  58.3257370  51.2187860
  31.7044920  59.7964340  51.4514180  22.7782500  59.1855140  64.0266150
  22.6390270  60.0577940  64.3953550  21.8963860  58.8427950  63.8814090
  29.1011880  64.1031010  55.3331280  29.5407790  64.8455340  54.9186670
  29.0398770  64.3457580  56.2570240  24.5762850  65.1276840  66.2351300
  24.5478280  65.5319790  65.3679730  24.4127820  64.1987200  66.0722900
  34.5733640  50.4177750  49.6791080  34.2606300  50.5104580  50.5790150
  35.3346110  50.9958780  49.6288510  21.0915780  57.7837550  54.1368420
  20.9713380  58.5099640  53.5249690  20.7816670  57.0140460  53.6596330
  36.5277670  65.9103940  67.5315470  37.0037390  66.3886830  68.2104550
  37.1484830  65.8421430  66.8060970  18.7301150  60.9552690  59.9437060
  18.8081570  61.0901460  58.9992780  19.3442830  60.2468580  60.1365180
  19.9748780  62.6552880  56.3543240  19.5676860  62.7967470  55.4996840
  20.8661790  62.3713040  56.1514450  35.9310920  63.1016790  64.6915480
  36.0573980  62.8628670  63.7732660  35.9732300  62.2701330  65.1637560
  29.7927660  66.8044790  63.2610290  30.3072330  66.7152800  64.0632720
  28.9496740  67.1504490  63.5538200  31.7682060  67.0900130  52.6894290
  31.6083200  66.8003070  53.5876120  31.6028770  66.3140260  52.1539520
  24.2470440  66.8698660  54.4665910  24.0712920  65.9534200  54.2533710
  23.3926180  67.2285950  54.7063710  31.4708190  64.5987690  51.2492290
  30.7773350  64.5964980  50.5894570  32.2131050  64.1747010  50.8186460
  31.0358120  66.2250400  55.3240780  31.4915070  65.4439780  55.6379400
  31.3750640  66.9357220  55.8681960  35.7834930  55.1549250  65.6565220
  35.1679200  55.6628920  65.1280680  35.4631350  54.2547580  65.5991160
  18.7860670  61.9966860  62.4831520  18.9491710  61.5272220  61.6650890
  19.2513120  61.4890420  63.1480360  23.5579440  51.1272620  57.5192090
  23.1147590  51.9082160  57.1876610  24.1164430  51.4502510  58.2263030
  27.8449250  53.9941140  63.1227410  27.3828620  54.2024160  63.9347350
  27.4427360  53.1800490  62.8198080  32.8453760  55.2150090  64.2524070
  31.9947350  54.9155840  64.5733140  32.6855550  55.4592100  63.3407890
  29.9403470  56.7151840  66.3522860  30.2656880  55.8815590  66.0125090
  30.7283800  57.2380360  66.5001190  26.6738260  50.7483320  52.3997920
  26.0492440  50.7443190  53.1251230  26.5868380  49.8814280  52.0033890
  25.5955340  51.6719950  59.3781690  25.8927670  52.5782780  59.2973710
  26.1440900  51.1838730  58.7641260  23.3493660  56.2506190  55.2473340
  23.1234580  56.0343360  56.1519960  22.5686190  56.6834650  54.9019310
  30.5791420  56.2569560  53.8463990  29.9800310  56.9805360  53.6627610
  31.1271030  56.1946340  53.0640440  25.7892870  57.1491770  65.9133610
  25.6936470  56.2086500  65.7634010  26.6324850  57.3706840  65.5181680
  29.1856290  54.8933100  55.8767270  29.5785860  55.2105300  55.0635960
  29.5473140  54.0144980  55.9911790  20.9203410  53.5605440  64.0667390
  20.5266800  54.4080650  64.2740170  20.2321810  52.9231810  64.2576030
  27.4948460  53.6440410  67.1364130  26.8046780  53.4512610  67.7710220
  28.2380760  53.9275050  67.6688430  18.2220460  51.4833900  58.0997470
  17.9333510  52.0536760  58.8122450  18.9666220  51.0038350  58.4628700
  18.4090690  55.4254020  49.3100190  18.3265360  56.3684780  49.4515180
  18.0573750  55.2828930  48.4312540  29.7711430  57.4838850  59.9718050
  29.0392550  57.9925660  60.3208150  29.3735770  56.6668830  59.6706830
  26.2088820  54.1593050  58.3770540  26.2124880  53.7183000  57.5275080
  27.1039940  54.4810380  58.4842360  22.0591200  54.0419540  57.3364750
  21.7191250  54.5194770  58.0931800  21.2968520  53.5884660  56.9765850
  26.2708970  55.1605130  51.3677300  26.3921790  55.1191610  52.3163120
  25.8857480  56.0229280  51.2124030  30.2337340  52.9372530  59.3840990
  30.2510080  53.3881180  60.2282840  29.9852920  52.0378170  59.5974430
  25.2830470  57.4706270  50.7660600  24.7147370  57.0224520  50.1396510
  25.9919470  57.8299050  50.2325750  33.6608090  50.3504710  65.2227370
  33.9853860  49.6194370  65.7485350  33.6964600  50.0318350  64.3208360
  20.3599650  61.3718290  64.6427330  19.9754440  60.7311960  65.2410290
  20.6711840  62.0754410  65.2122060  26.5096790  58.2194830  60.1235950
  26.8766920  57.7453400  60.8697290  26.3201850  59.0936400  60.4644290
  19.3737280  52.9638520  56.2529420  19.0884200  52.5994190  57.0908040
  19.3116140  52.2318980  55.6392560  24.2996160  57.2603470  62.4420160
  23.9953230  58.1395450  62.6670520  25.2542620  57.3203260  62.4777600
  22.8277950  61.4664460  53.0387010  22.0540210  60.9262080  52.8785730
  23.5572580  60.9471070  52.7004770  33.5865930  60.4629820  58.8313400
  34.3065050  60.9585110  58.4409510  33.3847750  59.7847710  58.1867270
  29.0475870  51.8567780  52.9742790  28.2340480  51.3580950  52.8988100
  28.8537820  52.6966030  52.5579140  28.9684730  60.5338880  64.7182400
  28.9022040  59.6134550  64.4639990  28.3389870  60.6314320  65.4327040
  31.7624260  56.2287430  51.2704950  32.6503880  56.5404660  51.0956290
  31.7329350  55.3559680  50.8785530  22.8715350  61.1344840  56.6765820
  23.3894020  60.3313100  56.6222710  22.4199370  61.0723980  57.5182650
  27.7584850  62.4011120  51.9493120  28.1000550  63.1453350  51.4536440
  26.9297560  62.7142240  52.3117950  20.3559890  58.1006210  63.5891520
  19.9974830  58.7660060  64.1764860  20.0614450  57.2689760  63.9604140
  23.5573010  58.5590450  66.4731070  23.2573150  58.7047630  65.5758890
  24.3284250  57.9995740  66.3804460  28.9001460  63.3559450  64.4686200
  28.9146000  62.4240410  64.2505110  28.1926560  63.4419210  65.1075970
  34.0338530  57.5399270  50.7384810  33.9502250  57.9713490  49.8881250
  34.7532720  57.9997620  51.1711630  35.1112670  59.9966790  63.8154780
  34.3860860  60.5895570  63.6184170  35.6388130  59.9890330  63.0168150
  35.0625780  64.3941530  53.4666940  34.4201940  63.7397150  53.7410660
  34.6756440  64.7996620  52.6907610  30.6412260  61.7226960  57.3138630
  30.9936080  61.1255090  56.6540000  29.7574590  61.3971190  57.4846880
  26.7275540  62.4824650  54.7209040  27.4146670  63.0293860  55.1016630
  25.9407960  63.0265380  54.7558650  18.8667940  58.0997470  50.2126120
  19.7362790  58.3822270  50.4962040  18.3758260  58.9133340  50.0974930
  26.0302750  59.4870680  54.3334400  26.4865530  60.2975930  54.5594590
  25.6790960  59.1693820  55.1652890  28.3335360  64.9977020  61.5626700
  28.9777580  65.2036400  62.2400120  28.6964800  64.2365420  61.1097550
  21.9314530  49.8308330  54.8056920  21.8029160  49.8226230  55.7541840
  21.1076550  50.1691420  54.4547930  29.6067440  63.0009370  60.2804150
  30.2489670  62.3002530  60.3936320  30.1316790  63.7807810  60.1001040
  33.4523160  63.2857990  50.0043290  33.2260740  62.5688430  50.5967930
  33.0619360  63.0370430  49.1665040  31.3805060  63.8004270  63.4840210
  31.7161300  64.3870960  64.1618130  30.4605400  63.6696980  63.7138000
  19.2339190  67.3124850  50.7787750  19.5936830  67.9114190  50.1245020
  19.0931530  67.8584740  51.5522780  18.9308460  51.5899450  64.2663620
  18.2166980  51.7896370  64.8716230  19.3503500  50.8139020  64.6378420
  33.0339410  61.2029930  51.6657450  32.7461110  61.6642620  52.4535330
  33.8291580  60.7427700  51.9341670  19.2181050  65.5779710  65.2530150
  19.3272170  64.6374450  65.1125540  18.5661610  65.8434460  64.6043880
  27.2093640  63.8495600  66.6528270  26.8890510  63.1304840  67.1973960
  26.5352000  64.5250670  66.7264330  25.2507810  64.6956050  51.5961420
  25.2417910  65.4285740  50.9805930  24.3306170  64.4487630  51.6888380
  20.8514450  59.9170940  52.3408180  20.2442400  60.6569840  52.3503480
  21.3263800  60.0070300  51.5146380  30.4247240  54.0821760  62.0165070
  30.7928060  53.2616970  62.3444640  29.5645440  54.1423650  62.4320720
  33.7909270  53.0378700  52.8252630  33.1622430  53.1424370  52.1110860
  33.2961190  53.2575480  53.6146510  28.2367410  64.7584290  50.2586610
  28.3379390  64.5548280  49.3288590  27.3369150  64.5042570  50.4634390
  25.7593300  55.3164650  54.2410510  25.0509450  55.7850990  54.6824120
  26.0437780  54.6586660  54.8755700  27.3849230  56.7361350  62.2403040
  27.8834480  57.2107170  62.9054890  27.5272180  55.8124870  62.4473070
  29.7908730  52.0415310  55.6806300  29.6676510  52.0601440  54.7315810
  30.7393290  52.0894250  55.8004700  26.8785520  67.2770610  54.9534280
  27.1327020  67.2392000  54.0313650  25.9298000  67.1503940  54.9462530
  23.9628320  53.6249730  51.6161220  24.8118850  54.0619880  51.5501410
  23.5959590  53.9369990  52.4433280  34.5916090  52.9529310  63.0831430
  34.0889690  53.6934710  63.4225240  35.4072750  53.3413310  62.7668220
  32.8838100  58.1962490  56.5292790  31.9428240  58.2112720  56.7040480
  33.1982170  57.4098450  56.9753090  22.8619740  59.8782090  50.0896750
  23.6283010  59.7663450  50.6522180  22.9394430  59.1820060  49.4373520
  21.5566500  57.3107160  50.7729640  21.6370090  56.3634670  50.8847040
  22.4486250  57.6414040  50.8790300  34.8863680  65.3671340  58.2047050
  35.0111100  66.1902510  58.6770860  35.7529240  65.1562070  57.8571200
  22.3581210  67.4602550  57.8764180  23.0943690  66.9118010  58.1472750
  22.7422130  68.3258560  57.7370170  19.2426690  63.5276120  53.7505690
  18.3166470  63.7697260  53.7411100  19.7083120  64.3550380  53.6290440
  21.3639490  66.6448620  67.0649760  22.1652220  66.9660670  67.4785160
  20.8491310  66.2844200  67.7869670  25.4683520  66.6332860  49.6989750
  26.2612130  66.9221690  49.2471540  24.9487870  66.2025030  49.0202230
  30.2004120  62.7528490  67.0125170  29.5942280  62.7760090  66.2720920
  29.8958230  62.0211530  67.5492420  31.6304490  66.4808780  65.6234580
  32.5826240  66.3966800  65.5734820  31.4832710  67.1450490  66.2968370
  34.5213690  65.8602990  51.1226490  34.2355200  65.4468130  50.3080670
  34.3233240  66.7890700  51.0027010  19.0837300  59.1322080  66.0085810
  19.5876320  58.5529360  66.5802040  18.3444720  59.4162310  66.5462180
  25.9860920  61.8536270  49.5632100  25.8811560  61.2388620  50.2893480
  25.8185140  61.3302160  48.7795110  26.1375240  60.5393070  65.5421330
  25.3720910  61.1078070  65.4576000  26.3191200  60.2469280  64.6489560
  29.2263650  60.9156300  50.1674090  28.6773750  61.3625600  50.8116830
  29.8482910  60.4105550  50.6911760  33.2798590  62.2698400  66.0996350
  34.0208060  62.6074160  65.5963810  32.5171270  62.4390460  65.5466120
  21.1160380  57.2751670  66.9035880  21.1565720  56.9765540  67.8121110
  21.9705880  57.6759280  66.7443400  24.8938770  59.8747220  52.0639390
  25.3155190  59.7087090  52.9070780  25.0189610  59.0647450  51.5694530
  23.0566190  55.8543770  64.8710370  22.5262650  55.3634720  64.2433710
  23.7254260  56.2827970  64.3368300  27.4066410  58.8984830  49.3116490
  27.9272070  58.1833850  48.9457640  28.0534810  59.5370700  49.6117000
  31.9544250  60.3213230  64.6351560  32.3685270  60.4758310  65.4841980
  31.0195250  60.4468450  64.7977340  32.4266420  57.6609390  66.6390710
  33.0087190  56.9061710  66.5511190  32.6028190  58.1916830  65.8622190
  23.5438490  52.8206140  64.9507660  23.4495360  52.2026890  64.2258530
  22.9635880  53.5472430  64.7237570  26.3099930  51.3779380  61.9835050
  25.8617230  51.4003640  61.1380600  25.6765130  50.9798400  62.5805350
  26.7159480  60.2733710  62.6047490  27.1347590  61.1166440  62.4323730
  25.7968110  60.4105750  62.3754270  29.0523380  58.0049890  63.9885330
  29.1719590  57.4091030  64.7280170  29.9117380  58.0419580  63.5686630
  31.3911280  58.5587080  62.5647840  30.8646500  59.0829700  61.9612980
  31.7342620  59.1914470  63.1957570  23.7897670  55.9480450  49.0097550
  23.5886730  55.0847810  49.3710890  23.6189720  55.8613810  48.0719150
  24.5666900  66.5786720  63.7205220  24.0287990  67.3032780  63.4013920
  24.8200860  66.1017060  62.9302560  25.8192150  54.5471240  65.2461150
  26.4091840  54.2387090  65.9338970  25.0012390  54.0750990  65.4021050
  30.6385580  54.1637050  65.4794170  29.9501100  53.5018590  65.4144160
  31.3591600  53.7175320  65.9242630  31.2685980  50.7588680  51.5384430
  31.5488270  49.9156580  51.8943850  30.4951710  50.9911790  52.0523180
  22.5880470  53.0481070  48.9975430  22.8906370  53.0548500  48.0894580
  23.3275060  52.6978930  49.4943090  27.4229110  67.8137930  63.9791870
  27.3487810  68.7173070  64.2864240  26.5207950  67.4949830  63.9513940
  25.8065400  51.9915690  49.9831630  25.4587400  51.3139680  49.4034080
  26.0078170  51.5305200  50.7975020  27.9714440  66.9796440  51.6018230
  28.8665230  67.3181410  51.6236990  28.0032070  66.2575850  50.9742510
  21.6110600  62.3523490  49.8305230  22.0485470  62.8953160  50.4862810
  22.0958330  61.5270440  49.8401570  18.8256400  65.1412520  57.2825490
  19.1559410  64.2733580  57.0504130  19.2547400  65.3471040  58.1130450
  23.4218320  63.4721530  54.9427460  23.1213860  63.3486500  55.8431370
  23.3155810  62.6130120  54.5343190  19.3146610  66.0083110  60.0207120
  18.8777600  66.1883910  60.8531270  19.8824290  66.7657730  59.8788840
  34.9508790  65.5100110  64.3084430  34.3510780  65.5692670  63.5648350
  35.0802690  64.5705090  64.4381280  36.1910240  63.2517930  49.6454140
  35.3603200  63.3194580  50.1161370  36.3682070  64.1422050  49.3421000
  35.6466700  59.9965410  52.1488340  36.4085610  60.5662060  52.2548030
  35.6621070  59.4292610  52.9196650  19.1471040  58.5203340  56.3796000
  18.4919880  58.2514980  55.7355700  19.9848990  58.4107820  55.9297980
  36.6526670  60.8515510  56.9930270  37.0235500  60.0682830  56.5866240
  37.2928600  61.5404610  56.8147570  33.6360430  62.2352090  62.4060590
  32.8220270  62.6649250  62.6686380  34.0434630  62.8470500  61.7929640
  35.6985870  60.2899780  49.3060860  35.9734710  61.1978660  49.1780080
  35.5096610  60.2262310  50.2422850  32.0961480  53.3144630  50.6014490
  32.5146360  53.1275610  49.7611150  31.7897540  52.4623680  50.9117420
  35.5951210  58.2268770  54.2990290  35.2194810  57.4596700  53.8671580
  34.8654330  58.6091470  54.7865220  20.1846970  58.9055910  60.9199340
  20.5520010  58.8183310  61.7995360  19.6157790  58.1422460  60.8206200
  34.9850830  57.3740290  63.9329810  34.7536920  57.1453040  63.0327760
  35.2455380  58.2939840  63.8874700  19.7362970  55.8165000  64.8257760
  18.8419020  55.7831760  65.1651470  20.2760520  56.0151790  65.5909010
  33.4238900  52.5996720  66.7109510  34.3009080  52.6080120  67.0943510
  33.4359740  51.8627560  66.1001860  18.3609120  55.7302270  52.3221330
  17.4573200  55.9932470  52.1472990  18.8449740  56.0013440  51.5421290
  34.8702170  56.4526260  57.5997530  35.3939650  55.9588910  56.9687700
  35.4561590  56.5876620  58.3445100  35.0491890  56.5366130  61.1217080
  34.0994600  56.5029670  61.2362070  35.2304900  57.4466240  60.8866850
  20.9036330  54.7867810  50.2315710  21.6128030  54.3651030  49.7462990
  20.1876270  54.8543040  49.5999060  20.5510490  50.8407140  49.2718360
  21.2738620  51.3816080  49.5899580  20.8235010  50.5670560  48.3959900
  34.3602140  55.7099610  53.5389940  34.8561260  55.4770480  54.3238820
  34.1618210  54.8711450  53.1227580  20.2402680  50.0913330  59.1740980
  20.8878870  49.5410710  58.7336140  20.6604520  50.3456480  59.9956790
  35.7889300  54.3460560  56.0727620  35.6788580  54.1916600  57.0109890
  36.5496890  53.8181500  55.8303030  34.1355020  50.2854690  62.5310620
  34.7727240  50.8988830  62.8969810  34.2829910  50.3215350  61.5859850
  36.6779570  52.1768480  49.3133760  37.6028880  52.0449660  49.1052050
  36.6555360  52.2561300  50.2670210  36.7518060  52.9479140  51.9390470
  35.9569560  52.8824260  52.4683380  36.9561340  53.8829780  51.9275820
  33.6936480  66.9870690  55.9328860  34.2895550  66.6655260  55.2563280
  33.9514630  66.5142510  56.7242130  19.9934680  50.2469000  61.9166300
  19.6449500  50.7032820  62.6824480  19.6622380  49.3526130  61.9988730
  21.5999050  63.4188600  66.0819490  21.5568680  63.0481510  66.9633950
  21.7310060  64.3566170  66.2221310  25.3005080  64.9748190  61.6829210
  25.0596440  65.2422750  60.7959730  26.2407720  65.1453920  61.7380070
  27.5059500  51.4380880  65.4385720  27.4448390  52.0302710  66.1881130
  28.4459880  51.3306840  65.2935980  30.1434060  51.0950940  65.0778010
  30.7574470  51.4130230  64.4159090  30.6883620  50.6099530  65.6973870
  36.5609240  66.9942570  62.4839850  36.0667520  67.3911440  61.7666980
  35.9522530  66.3691780  62.8777130  20.6655320  49.7745200  65.1917070
  21.2138310  49.5933250  64.4283180  20.7310630  48.9839310  65.7273380
  21.4387080  66.3650850  63.2017270  20.8447400  66.2335550  63.9407310
  21.4310920  65.5288990  62.7359370  30.8842100  49.6583080  61.4047300
  30.0101940  49.9918190  61.2020230  30.7752850  49.1856260  62.2299170
  31.7914080  51.8653950  62.7889020  31.4627440  51.0505710  62.4090750
  32.7396380  51.8223760  62.6654710  34.2448690  67.6365990  59.7626590
  33.7851660  68.3881800  59.3884610  33.6161150  66.9172460  59.7041390
  21.0699310  63.7309230  62.1525310  20.3433370  63.1114520  62.0851260
  21.1308460  64.1249840  61.2823390  24.6744410  65.9454230  58.9374720
  25.1909430  65.3341590  58.4122980  25.3241790  66.4483010  59.4285730
  27.4139910  66.8362720  59.7643700  27.7017720  66.5817020  58.8876710
  27.9263130  66.2840080  60.3549270  28.6316920  50.5752920  60.3440210
  27.8488710  51.0498420  60.6236970  28.3379850  49.6707750  60.2353390
  33.1837990  51.2776020  58.3889300  33.6246080  51.2221120  57.5410900
  32.9145580  52.1934030  58.4599480  35.0476560  50.9091260  56.3998120
  34.9864960  49.9652480  56.2529140  35.8268590  51.0171350  56.9451580
  19.3529310  67.0483620  55.3622070  19.1851350  66.4154300  56.0603960
  18.4863820  67.2543020  55.0116260  19.9757330  50.8800400  52.8653930
  20.7336690  50.9929280  52.2917960  19.5134500  51.7169600  52.8197360
  26.5171140  52.9939670  55.8556240  25.7045650  52.6196560  55.5152120
  27.0212780  52.2384750  56.1577430  31.0196120  49.6582120  57.0939310
  31.6225490  50.2302330  57.5687830  30.2789110  50.2221560  56.8713210
  34.1630720  50.0603680  52.3679590  34.3581350  50.9587130  52.6347020
  33.3760590  49.8290760  52.8612540  20.9592010  65.7416850  52.8072210
  20.4339630  66.1224880  52.1034170  20.8836590  66.3667620  53.5281920
  22.3482480  51.4064450  51.4055900  22.8775240  50.6194250  51.2763850
  22.9810800  52.0855640  51.6391430  24.5420320  51.1439590  54.4601290
  23.9123060  50.4426900  54.6271420  24.0025460  51.9043720  54.2434450
  27.4812270  67.7578820  67.1311900  28.4079580  67.5223090  67.1747860
  27.4662700  68.5850820  66.6497930  35.7157330  67.3004390  54.1286150
  35.8909520  66.6142130  53.4847070  35.0178900  67.8251440  53.7362820
  24.6675880  50.4223570  66.8953780  24.3860150  50.9257170  66.1314600
  25.0495580  49.6245320  66.5295910  23.5584980  67.6899230  51.6821460
  24.2903800  67.4058510  51.1345350  23.8178650  67.4512510  52.5720840
  22.7199770  63.8063960  51.6867790  22.0908650  64.2749060  52.2353620
  22.8347600  62.9613180  52.1213980  31.2691340  49.8377150  67.4734250
  31.1556790  50.1571760  68.3685770  32.0861080  50.2389660  67.1771530
  34.0489830  66.9848680  66.9552940  34.8415150  66.4897910  66.7478900
  34.3422980  67.6638820  67.5628550  30.1749490  57.8569620  37.8368990
  30.0943540  56.9424230  37.5660700  29.7613910  58.3536690  37.1308700
  28.3067530  59.6348640  39.7178260  27.5309630  59.1549080  40.0076830
  28.9580460  58.9554290  39.5434420  22.3233360  59.9468450  40.5954020
  21.4918240  59.6917160  40.9950530  22.9314340  60.0179220  41.3311940
  32.3274960  64.0408830  38.4977390  31.8656490  63.2696070  38.8264560
  33.1400510  64.0674900  39.0029840  22.3034620  63.9808540  40.7912040
  22.6062660  63.0906280  40.6122260  23.0478210  64.5378760  40.5634290
  20.7325310  54.9070340  34.3796410  19.8442010  55.2486310  34.2776290
  21.0166500  54.7070660  33.4877240  18.6958320  57.5075990  40.2636110
  19.2674430  56.7398190  40.2639750  18.6959860  57.8064750  39.3542720
  28.5538270  66.3266840  38.1181380  27.9349710  66.7824340  37.5475820
  29.4090050  66.4818300  37.7171080  27.7476520  62.3105830  39.7248420
  27.6784800  61.3695770  39.5637550  28.5096380  62.4007240  40.2970990
  19.9383190  52.9160350  42.0505040  19.7586030  52.0186100  42.3307800
  19.5363270  53.4632220  42.7251990  28.7781690  55.1176210  39.9517350
  29.1546510  54.2448090  39.8391020  28.6801200  55.4534910  39.0607790
  22.9086700  53.4901840  35.4134790  23.0153450  54.3905570  35.7203550
  21.9979060  53.4419810  35.1229440  32.5605810  52.6126650  36.8845690
  33.3815430  52.1223220  36.9271170  32.5939890  53.2024310  37.6377530
  20.5569860  55.4120850  40.6587380  21.2379970  55.6759220  41.2774780
  20.2417910  54.5721720  40.9925390  24.7494430  56.4588210  39.7459970
  25.2572650  56.9569180  40.3864990  25.2807670  55.6823410  39.5699330
  36.8505360  54.6293400  43.4489320  36.1457530  55.0175110  42.9304430
  37.1163280  55.3243690  44.0510250  23.0330530  51.0986770  44.0123390
  23.0348970  51.6159160  43.2069290  22.2034840  50.6216950  43.9893320
  29.4201620  61.2106080  35.5113290  28.8018890  61.6755530  34.9476010
  29.9324870  61.9033560  35.9282800  24.2833380  60.7381950  42.1896890
  23.9502760  61.3650870  42.8317960  24.4600060  61.2643830  41.4098560
  32.7967290  54.5527030  39.6573230  32.0922860  54.8411920  40.2376340
  33.1579450  55.3627140  39.2972790  22.7145860  52.8096730  42.0193840
  23.0562670  53.6538780  41.7247710  21.7761670  52.9580470  42.1359180
  23.4952480  62.7062750  44.0046070  24.1126480  63.3813830  43.7230520
  22.6345600  63.1150730  43.9133570  18.7884820  61.8962610  32.8852920
  18.4112800  62.3849710  32.1537820  19.0457890  62.5687890  33.5159450
  34.4130070  64.1702160  41.9200710  33.7293590  64.8401270  41.9117380
  34.9524360  64.3682810  41.1545570  35.8654210  53.9981820  40.0482440
  34.9179120  54.0320800  40.1797870  36.1904200  54.8120770  40.4331800
  26.3973750  50.2979000  38.3438430  26.7048730  49.7425890  37.6273930
  25.4674450  50.4323460  38.1611420  31.9488810  66.0146290  40.6345890
  31.9615970  65.6108580  39.7668150  31.3964030  66.7893580  40.5307320
  33.2434230  62.7362510  35.7236060  33.1330560  61.7936840  35.8485480
  33.2402480  63.0978150  36.6098820  31.3474250  60.9176130  41.9628500
  31.7643040  60.7036240  41.1281960  32.0714070  61.1748920  42.5337120
  28.7854510  58.3627830  35.0798550  27.8583790  58.2965210  35.3087020
  28.9379330  59.3007960  34.9653790  28.7723590  54.6344830  32.0765710
  27.8327260  54.7958790  32.1618170  29.0906850  55.3530510  31.5301700
  35.2936350  59.3163350  42.0544740  34.4654980  59.3856440  41.5794870
  35.8886830  59.9017660  41.5860570  32.8151800  59.9248130  35.5833800
  32.1964220  59.5867680  34.9360100  32.7976250  59.2807890  36.2912990
  32.2578360  56.1032670  42.9999610  31.8449540  56.9286380  43.2539600
  31.5254310  55.5177710  42.8075970  24.3911150  58.8892570  37.8618280
  23.9868150  58.1769820  37.3664180  24.4774270  58.5445810  38.7506320
  24.8592850  62.5760130  40.0257490  24.5621140  61.9705600  39.3465270
  25.8092670  62.6137440  39.9146850  23.1039770  55.6635780  41.6417320
  23.6554360  55.7731120  40.8670570  23.6183280  56.0373380  42.3572550
  32.9478460  66.1492000  43.6880590  32.4709020  66.9564190  43.4953200
  32.2640250  65.4970330  43.8406800  23.9511280  62.3141820  46.6765290
  23.0539810  62.5381790  46.9238690  23.9764150  62.4376760  45.7276690
  30.9916500  59.1634940  32.5906550  31.4309780  58.3257370  32.4444370
  31.7044920  59.7964340  32.6770690  22.7782500  59.1855140  45.2522660
  22.6390270  60.0577940  45.6210060  21.8963860  58.8427950  45.1070600
  29.1011880  64.1031010  36.5587790  29.5407790  64.8455340  36.1443180
  29.0398770  64.3457580  37.4826750  24.5762850  65.1276840  47.4607810
  24.5478280  65.5319790  46.5936240  24.4127820  64.1987200  47.2979410
  34.5733640  50.4177750  30.9047590  34.2606300  50.5104580  31.8046660
  35.3346110  50.9958780  30.8545020  21.0915780  57.7837550  35.3624930
  20.9713380  58.5099640  34.7506200  20.7816670  57.0140460  34.8852840
  36.5277670  65.9103940  48.7571980  37.0037390  66.3886830  49.4361060
  37.1484830  65.8421430  48.0317480  18.7301150  60.9552690  41.1693570
  18.8081570  61.0901460  40.2249290  19.3442830  60.2468580  41.3621690
  19.9748780  62.6552880  37.5799750  19.5676860  62.7967470  36.7253350
  20.8661790  62.3713040  37.3770960  35.9310920  63.1016790  45.9171990
  36.0573980  62.8628670  44.9989170  35.9732300  62.2701330  46.3894070
  29.7927660  66.8044790  44.4866800  30.3072330  66.7152800  45.2889230
  28.9496740  67.1504490  44.7794710  31.7682060  67.0900130  33.9150800
  31.6083200  66.8003070  34.8132630  31.6028770  66.3140260  33.3796030
  24.2470440  66.8698660  35.6922420  24.0712920  65.9534200  35.4790220
  23.3926180  67.2285950  35.9320220  31.4708190  64.5987690  32.4748800
  30.7773350  64.5964980  31.8151080  32.2131050  64.1747010  32.0442970
  31.0358120  66.2250400  36.5497290  31.4915070  65.4439780  36.8635910
  31.3750640  66.9357220  37.0938470  35.7834930  55.1549250  46.8821730
  35.1679200  55.6628920  46.3537190  35.4631350  54.2547580  46.8247670
  18.7860670  61.9966860  43.7088030  18.9491710  61.5272220  42.8907400
  19.2513120  61.4890420  44.3736870  23.5579440  51.1272620  38.7448600
  23.1147590  51.9082160  38.4133120  24.1164430  51.4502510  39.4519540
  27.8449250  53.9941140  44.3483920  27.3828620  54.2024160  45.1603860
  27.4427360  53.1800490  44.0454590  32.8453760  55.2150090  45.4780580
  31.9947350  54.9155840  45.7989650  32.6855550  55.4592100  44.5664400
  29.9403470  56.7151840  47.5779370  30.2656880  55.8815590  47.2381600
  30.7283800  57.2380360  47.7257700  26.6738260  50.7483320  33.6254430
  26.0492440  50.7443190  34.3507740  26.5868380  49.8814280  33.2290400
  25.5955340  51.6719950  40.6038200  25.8927670  52.5782780  40.5230220
  26.1440900  51.1838730  39.9897770  23.3493660  56.2506190  36.4729850
  23.1234580  56.0343360  37.3776470  22.5686190  56.6834650  36.1275820
  30.5791420  56.2569560  35.0720500  29.9800310  56.9805360  34.8884120
  31.1271030  56.1946340  34.2896950  25.7892870  57.1491770  47.1390120
  25.6936470  56.2086500  46.9890520  26.6324850  57.3706840  46.7438190
  29.1856290  54.8933100  37.1023780  29.5785860  55.2105300  36.2892470
  29.5473140  54.0144980  37.2168300  20.9203410  53.5605440  45.2923900
  20.5266800  54.4080650  45.4996680  20.2321810  52.9231810  45.4832540
  27.4948460  53.6440410  48.3620640  26.8046780  53.4512610  48.9966730
  28.2380760  53.9275050  48.8944940  18.2220460  51.4833900  39.3253980
  17.9333510  52.0536760  40.0378960  18.9666220  51.0038350  39.6885210
  18.4090690  55.4254020  30.5356700  18.3265360  56.3684780  30.6771690
  18.0573750  55.2828930  29.6569050  29.7711430  57.4838850  41.1974560
  29.0392550  57.9925660  41.5464660  29.3735770  56.6668830  40.8963340
  26.2088820  54.1593050  39.6027050  26.2124880  53.7183000  38.7531590
  27.1039940  54.4810380  39.7098870  22.0591200  54.0419540  38.5621260
  21.7191250  54.5194770  39.3188310  21.2968520  53.5884660  38.2022360
  26.2708970  55.1605130  32.5933810  26.3921790  55.1191610  33.5419630
  25.8857480  56.0229280  32.4380540  30.2337340  52.9372530  40.6097500
  30.2510080  53.3881180  41.4539350  29.9852920  52.0378170  40.8230940
  25.2830470  57.4706270  31.9917110  24.7147370  57.0224520  31.3653020
  25.9919470  57.8299050  31.4582260  33.6608090  50.3504710  46.4483880
  33.9853860  49.6194370  46.9741860  33.6964600  50.0318350  45.5464870
  20.3599650  61.3718290  45.8683840  19.9754440  60.7311960  46.4666800
  20.6711840  62.0754410  46.4378570  26.5096790  58.2194830  41.3492460
  26.8766920  57.7453400  42.0953800  26.3201850  59.0936400  41.6900800
  19.3737280  52.9638520  37.4785930  19.0884200  52.5994190  38.3164550
  19.3116140  52.2318980  36.8649070  24.2996160  57.2603470  43.6676670
  23.9953230  58.1395450  43.8927030  25.2542620  57.3203260  43.7034110
  22.8277950  61.4664460  34.2643520  22.0540210  60.9262080  34.1042240
  23.5572580  60.9471070  33.9261280  33.5865930  60.4629820  40.0569910
  34.3065050  60.9585110  39.6666020  33.3847750  59.7847710  39.4123780
  29.0475870  51.8567780  34.1999300  28.2340480  51.3580950  34.1244610
  28.8537820  52.6966030  33.7835650  28.9684730  60.5338880  45.9438910
  28.9022040  59.6134550  45.6896500  28.3389870  60.6314320  46.6583550
  31.7624260  56.2287430  32.4961460  32.6503880  56.5404660  32.3212800
  31.7329350  55.3559680  32.1042040  22.8715350  61.1344840  37.9022330
  23.3894020  60.3313100  37.8479220  22.4199370  61.0723980  38.7439160
  27.7584850  62.4011120  33.1749630  28.1000550  63.1453350  32.6792950
  26.9297560  62.7142240  33.5374460  20.3559890  58.1006210  44.8148030
  19.9974830  58.7660060  45.4021370  20.0614450  57.2689760  45.1860650
  23.5573010  58.5590450  47.6987580  23.2573150  58.7047630  46.8015400
  24.3284250  57.9995740  47.6060970  28.9001460  63.3559450  45.6942710
  28.9146000  62.4240410  45.4761620  28.1926560  63.4419210  46.3332480
  34.0338530  57.5399270  31.9641320  33.9502250  57.9713490  31.1137760
  34.7532720  57.9997620  32.3968140  35.1112670  59.9966790  45.0411290
  34.3860860  60.5895570  44.8440680  35.6388130  59.9890330  44.2424660
  35.0625780  64.3941530  34.6923450  34.4201940  63.7397150  34.9667170
  34.6756440  64.7996620  33.9164120  30.6412260  61.7226960  38.5395140
  30.9936080  61.1255090  37.8796510  29.7574590  61.3971190  38.7103390
  26.7275540  62.4824650  35.9465550  27.4146670  63.0293860  36.3273140
  25.9407960  63.0265380  35.9815160  18.8667940  58.0997470  31.4382630
  19.7362790  58.3822270  31.7218550  18.3758260  58.9133340  31.3231440
  26.0302750  59.4870680  35.5590910  26.4865530  60.2975930  35.7851100
  25.6790960  59.1693820  36.3909400  28.3335360  64.9977020  42.7883210
  28.9777580  65.2036400  43.4656630  28.6964800  64.2365420  42.3354060
  21.9314530  49.8308330  36.0313430  21.8029160  49.8226230  36.9798350
  21.1076550  50.1691420  35.6804440  29.6067440  63.0009370  41.5060660
  30.2489670  62.3002530  41.6192830  30.1316790  63.7807810  41.3257550
  33.4523160  63.2857990  31.2299800  33.2260740  62.5688430  31.8224440
  33.0619360  63.0370430  30.3921550  31.3805060  63.8004270  44.7096720
  31.7161300  64.3870960  45.3874640  30.4605400  63.6696980  44.9394510
  19.2339190  67.3124850  32.0044260  19.5936830  67.9114190  31.3501530
  19.0931530  67.8584740  32.7779290  18.9308460  51.5899450  45.4920130
  18.2166980  51.7896370  46.0972740  19.3503500  50.8139020  45.8634930
  33.0339410  61.2029930  32.8913960  32.7461110  61.6642620  33.6791840
  33.8291580  60.7427700  33.1598180  19.2181050  65.5779710  46.4786660
  19.3272170  64.6374450  46.3382050  18.5661610  65.8434460  45.8300390
  27.2093640  63.8495600  47.8784780  26.8890510  63.1304840  48.4230470
  26.5352000  64.5250670  47.9520840  25.2507810  64.6956050  32.8217930
  25.2417910  65.4285740  32.2062440  24.3306170  64.4487630  32.9144890
  20.8514450  59.9170940  33.5664690  20.2442400  60.6569840  33.5759990
  21.3263800  60.0070300  32.7402890  30.4247240  54.0821760  43.2421580
  30.7928060  53.2616970  43.5701150  29.5645440  54.1423650  43.6577230
  33.7909270  53.0378700  34.0509140  33.1622430  53.1424370  33.3367370
  33.2961190  53.2575480  34.8403020  28.2367410  64.7584290  31.4843120
  28.3379390  64.5548280  30.5545100  27.3369150  64.5042570  31.6890900
  25.7593300  55.3164650  35.4667020  25.0509450  55.7850990  35.9080630
  26.0437780  54.6586660  36.1012210  27.3849230  56.7361350  43.4659550
  27.8834480  57.2107170  44.1311400  27.5272180  55.8124870  43.6729580
  29.7908730  52.0415310  36.9062810  29.6676510  52.0601440  35.9572320
  30.7393290  52.0894250  37.0261210  26.8785520  67.2770610  36.1790790
  27.1327020  67.2392000  35.2570160  25.9298000  67.1503940  36.1719040
  23.9628320  53.6249730  32.8417730  24.8118850  54.0619880  32.7757920
  23.5959590  53.9369990  33.6689790  34.5916090  52.9529310  44.3087940
  34.0889690  53.6934710  44.6481750  35.4072750  53.3413310  43.9924730
  32.8838100  58.1962490  37.7549300  31.9428240  58.2112720  37.9296990
  33.1982170  57.4098450  38.2009600  22.8619740  59.8782090  31.3153260
  23.6283010  59.7663450  31.8778690  22.9394430  59.1820060  30.6630030
  21.5566500  57.3107160  31.9986150  21.6370090  56.3634670  32.1103550
  22.4486250  57.6414040  32.1046810  34.8863680  65.3671340  39.4303560
  35.0111100  66.1902510  39.9027370  35.7529240  65.1562070  39.0827710
  22.3581210  67.4602550  39.1020690  23.0943690  66.9118010  39.3729260
  22.7422130  68.3258560  38.9626680  19.2426690  63.5276120  34.9762200
  18.3166470  63.7697260  34.9667610  19.7083120  64.3550380  34.8546950
  21.3639490  66.6448620  48.2906270  22.1652220  66.9660670  48.7041670
  20.8491310  66.2844200  49.0126180  25.4683520  66.6332860  30.9246260
  26.2612130  66.9221690  30.4728050  24.9487870  66.2025030  30.2458740
  30.2004120  62.7528490  48.2381680  29.5942280  62.7760090  47.4977430
  29.8958230  62.0211530  48.7748930  31.6304490  66.4808780  46.8491090
  32.5826240  66.3966800  46.7991330  31.4832710  67.1450490  47.5224880
  34.5213690  65.8602990  32.3483000  34.2355200  65.4468130  31.5337180
  34.3233240  66.7890700  32.2283520  19.0837300  59.1322080  47.2342320
  19.5876320  58.5529360  47.8058550  18.3444720  59.4162310  47.7718690
  25.9860920  61.8536270  30.7888610  25.8811560  61.2388620  31.5149990
  25.8185140  61.3302160  30.0051620  26.1375240  60.5393070  46.7677840
  25.3720910  61.1078070  46.6832510  26.3191200  60.2469280  45.8746070
  29.2263650  60.9156300  31.3930600  28.6773750  61.3625600  32.0373340
  29.8482910  60.4105550  31.9168270  33.2798590  62.2698400  47.3252860
  34.0208060  62.6074160  46.8220320  32.5171270  62.4390460  46.7722630
  21.1160380  57.2751670  48.1292390  21.1565720  56.9765540  49.0377620
  21.9705880  57.6759280  47.9699910  24.8938770  59.8747220  33.2895900
  25.3155190  59.7087090  34.1327290  25.0189610  59.0647450  32.7951040
  23.0566190  55.8543770  46.0966880  22.5262650  55.3634720  45.4690220
  23.7254260  56.2827970  45.5624810  27.4066410  58.8984830  30.5373000
  27.9272070  58.1833850  30.1714150  28.0534810  59.5370700  30.8373510
  31.9544250  60.3213230  45.8608070  32.3685270  60.4758310  46.7098490
  31.0195250  60.4468450  46.0233850  32.4266420  57.6609390  47.8647220
  33.0087190  56.9061710  47.7767700  32.6028190  58.1916830  47.0878700
  23.5438490  52.8206140  46.1764170  23.4495360  52.2026890  45.4515040
  22.9635880  53.5472430  45.9494080  26.3099930  51.3779380  43.2091560
  25.8617230  51.4003640  42.3637110  25.6765130  50.9798400  43.8061860
  26.7159480  60.2733710  43.8304000  27.1347590  61.1166440  43.6580240
  25.7968110  60.4105750  43.6010780  29.0523380  58.0049890  45.2141840
  29.1719590  57.4091030  45.9536680  29.9117380  58.0419580  44.7943140
  31.3911280  58.5587080  43.7904350  30.8646500  59.0829700  43.1869490
  31.7342620  59.1914470  44.4214080  23.7897670  55.9480450  30.2354060
  23.5886730  55.0847810  30.5967400  23.6189720  55.8613810  29.2975660
  24.5666900  66.5786720  44.9461730  24.0287990  67.3032780  44.6270430
  24.8200860  66.1017060  44.1559070  25.8192150  54.5471240  46.4717660
  26.4091840  54.2387090  47.1595480  25.0012390  54.0750990  46.6277560
  30.6385580  54.1637050  46.7050680  29.9501100  53.5018590  46.6400670
  31.3591600  53.7175320  47.1499140  31.2685980  50.7588680  32.7640940
  31.5488270  49.9156580  33.1200360  30.4951710  50.9911790  33.2779690
  22.5880470  53.0481070  30.2231940  22.8906370  53.0548500  29.3151090
  23.3275060  52.6978930  30.7199600  27.4229110  67.8137930  45.2048380
  27.3487810  68.7173070  45.5120750  26.5207950  67.4949830  45.1770450
  25.8065400  51.9915690  31.2088140  25.4587400  51.3139680  30.6290590
  26.0078170  51.5305200  32.0231530  27.9714440  66.9796440  32.8274740
  28.8665230  67.3181410  32.8493500  28.0032070  66.2575850  32.1999020
  21.6110600  62.3523490  31.0561740  22.0485470  62.8953160  31.7119320
  22.0958330  61.5270440  31.0658080  18.8256400  65.1412520  38.5082000
  19.1559410  64.2733580  38.2760640  19.2547400  65.3471040  39.3386960
  23.4218320  63.4721530  36.1683970  23.1213860  63.3486500  37.0687880
  23.3155810  62.6130120  35.7599700  19.3146610  66.0083110  41.2463630
  18.8777600  66.1883910  42.0787780  19.8824290  66.7657730  41.1045350
  34.9508790  65.5100110  45.5340940  34.3510780  65.5692670  44.7904860
  35.0802690  64.5705090  45.6637790  36.1910240  63.2517930  30.8710650
  35.3603200  63.3194580  31.3417880  36.3682070  64.1422050  30.5677510
  35.6466700  59.9965410  33.3744850  36.4085610  60.5662060  33.4804540
  35.6621070  59.4292610  34.1453160  19.1471040  58.5203340  37.6052510
  18.4919880  58.2514980  36.9612210  19.9848990  58.4107820  37.1554490
  36.6526670  60.8515510  38.2186780  37.0235500  60.0682830  37.8122750
  37.2928600  61.5404610  38.0404080  33.6360430  62.2352090  43.6317100
  32.8220270  62.6649250  43.8942890  34.0434630  62.8470500  43.0186150
  35.6985870  60.2899780  30.5317370  35.9734710  61.1978660  30.4036590
  35.5096610  60.2262310  31.4679360  32.0961480  53.3144630  31.8271000
  32.5146360  53.1275610  30.9867660  31.7897540  52.4623680  32.1373930
  35.5951210  58.2268770  35.5246800  35.2194810  57.4596700  35.0928090
  34.8654330  58.6091470  36.0121730  20.1846970  58.9055910  42.1455850
  20.5520010  58.8183310  43.0251870  19.6157790  58.1422460  42.0462710
  34.9850830  57.3740290  45.1586320  34.7536920  57.1453040  44.2584270
  35.2455380  58.2939840  45.1131210  19.7362970  55.8165000  46.0514270
  18.8419020  55.7831760  46.3907980  20.2760520  56.0151790  46.8165520
  33.4238900  52.5996720  47.9366020  34.3009080  52.6080120  48.3200020
  33.4359740  51.8627560  47.3258370  18.3609120  55.7302270  33.5477840
  17.4573200  55.9932470  33.3729500  18.8449740  56.0013440  32.7677800
  34.8702170  56.4526260  38.8254040  35.3939650  55.9588910  38.1944210
  35.4561590  56.5876620  39.5701610  35.0491890  56.5366130  42.3473590
  34.0994600  56.5029670  42.4618580  35.2304900  57.4466240  42.1123360
  20.9036330  54.7867810  31.4572220  21.6128030  54.3651030  30.9719500
  20.1876270  54.8543040  30.8255570  20.5510490  50.8407140  30.4974870
  21.2738620  51.3816080  30.8156090  20.8235010  50.5670560  29.6216410
  34.3602140  55.7099610  34.7646450  34.8561260  55.4770480  35.5495330
  34.1618210  54.8711450  34.3484090  20.2402680  50.0913330  40.3997490
  20.8878870  49.5410710  39.9592650  20.6604520  50.3456480  41.2213300
  35.7889300  54.3460560  37.2984130  35.6788580  54.1916600  38.2366400
  36.5496890  53.8181500  37.0559540  34.1355020  50.2854690  43.7567130
  34.7727240  50.8988830  44.1226320  34.2829910  50.3215350  42.8116360
  36.6779570  52.1768480  30.5390270  37.6028880  52.0449660  30.3308560
  36.6555360  52.2561300  31.4926720  36.7518060  52.9479140  33.1646980
  35.9569560  52.8824260  33.6939890  36.9561340  53.8829780  33.1532330
  33.6936480  66.9870690  37.1585370  34.2895550  66.6655260  36.4819790
  33.9514630  66.5142510  37.9498640  19.9934680  50.2469000  43.1422810
  19.6449500  50.7032820  43.9080990  19.6622380  49.3526130  43.2245240
  21.5999050  63.4188600  47.3076000  21.5568680  63.0481510  48.1890460
  21.7310060  64.3566170  47.4477820  25.3005080  64.9748190  42.9085720
  25.0596440  65.2422750  42.0216240  26.2407720  65.1453920  42.9636580
  27.5059500  51.4380880  46.6642230  27.4448390  52.0302710  47.4137640
  28.4459880  51.3306840  46.5192490  30.1434060  51.0950940  46.3034520
  30.7574470  51.4130230  45.6415600  30.6883620  50.6099530  46.9230380
  36.5609240  66.9942570  43.7096360  36.0667520  67.3911440  42.9923490
  35.9522530  66.3691780  44.1033640  20.6655320  49.7745200  46.4173580
  21.2138310  49.5933250  45.6539690  20.7310630  48.9839310  46.9529890
  21.4387080  66.3650850  44.4273780  20.8447400  66.2335550  45.1663820
  21.4310920  65.5288990  43.9615880  30.8842100  49.6583080  42.6303810
  30.0101940  49.9918190  42.4276740  30.7752850  49.1856260  43.4555680
  31.7914080  51.8653950  44.0145530  31.4627440  51.0505710  43.6347260
  32.7396380  51.8223760  43.8911220  34.2448690  67.6365990  40.9883100
  33.7851660  68.3881800  40.6141120  33.6161150  66.9172460  40.9297900
  21.0699310  63.7309230  43.3781820  20.3433370  63.1114520  43.3107770
  21.1308460  64.1249840  42.5079900  24.6744410  65.9454230  40.1631230
  25.1909430  65.3341590  39.6379490  25.3241790  66.4483010  40.6542240
  27.4139910  66.8362720  40.9900210  27.7017720  66.5817020  40.1133220
  27.9263130  66.2840080  41.5805780  28.6316920  50.5752920  41.5696720
  27.8488710  51.0498420  41.8493480  28.3379850  49.6707750  41.4609900
  33.1837990  51.2776020  39.6145810  33.6246080  51.2221120  38.7667410
  32.9145580  52.1934030  39.6855990  35.0476560  50.9091260  37.6254630
  34.9864960  49.9652480  37.4785650  35.8268590  51.0171350  38.1708090
  19.3529310  67.0483620  36.5878580  19.1851350  66.4154300  37.2860470
  18.4863820  67.2543020  36.2372770  19.9757330  50.8800400  34.0910440
  20.7336690  50.9929280  33.5174470  19.5134500  51.7169600  34.0453870
  26.5171140  52.9939670  37.0812750  25.7045650  52.6196560  36.7408630
  27.0212780  52.2384750  37.3833940  31.0196120  49.6582120  38.3195820
  31.6225490  50.2302330  38.7944340  30.2789110  50.2221560  38.0969720
  34.1630720  50.0603680  33.5936100  34.3581350  50.9587130  33.8603530
  33.3760590  49.8290760  34.0869050  20.9592010  65.7416850  34.0328720
  20.4339630  66.1224880  33.3290680  20.8836590  66.3667620  34.7538430
  22.3482480  51.4064450  32.6312410  22.8775240  50.6194250  32.5020360
  22.9810800  52.0855640  32.8647940  24.5420320  51.1439590  35.6857800
  23.9123060  50.4426900  35.8527930  24.0025460  51.9043720  35.4690960
  27.4812270  67.7578820  48.3568410  28.4079580  67.5223090  48.4004370
  27.4662700  68.5850820  47.8754440  35.7157330  67.3004390  35.3542660
  35.8909520  66.6142130  34.7103580  35.0178900  67.8251440  34.9619330
  24.6675880  50.4223570  48.1210290  24.3860150  50.9257170  47.3571110
  25.0495580  49.6245320  47.7552420  23.5584980  67.6899230  32.9077970
  24.2903800  67.4058510  32.3601860  23.8178650  67.4512510  33.7977350
  22.7199770  63.8063960  32.9124300  22.0908650  64.2749060  33.4610130
  22.8347600  62.9613180  33.3470490  31.2691340  49.8377150  48.6990760
  31.1556790  50.1571760  49.5942280  32.0861080  50.2389660  48.4028040
  34.0489830  66.9848680  48.1809450  34.8415150  66.4897910  47.9735410
  34.3422980  67.6638820  48.7885060  30.1749490  57.8569620  19.0625500
  30.0943540  56.9424230  18.7917210  29.7613910  58.3536690  18.3565210
  28.3067530  59.6348640  20.9434770  27.5309630  59.1549080  21.2333340
  28.9580460  58.9554290  20.7690930  22.3233360  59.9468450  21.8210530
  21.4918240  59.6917160  22.2207040  22.9314340  60.0179220  22.5568450
  32.3274960  64.0408830  19.7233900  31.8656490  63.2696070  20.0521070
  33.1400510  64.0674900  20.2286350  22.3034620  63.9808540  22.0168550
  22.6062660  63.0906280  21.8378770  23.0478210  64.5378760  21.7890800
  20.7325310  54.9070340  15.6052920  19.8442010  55.2486310  15.5032800
  21.0166500  54.7070660  14.7133750  18.6958320  57.5075990  21.4892620
  19.2674430  56.7398190  21.4896260  18.6959860  57.8064750  20.5799230
  28.5538270  66.3266840  19.3437890  27.9349710  66.7824340  18.7732330
  29.4090050  66.4818300  18.9427590  27.7476520  62.3105830  20.9504930
  27.6784800  61.3695770  20.7894060  28.5096380  62.4007240  21.5227500
  19.9383190  52.9160350  23.2761550  19.7586030  52.0186100  23.5564310
  19.5363270  53.4632220  23.9508500  28.7781690  55.1176210  21.1773860
  29.1546510  54.2448090  21.0647530  28.6801200  55.4534910  20.2864300
  22.9086700  53.4901840  16.6391300  23.0153450  54.3905570  16.9460060
  21.9979060  53.4419810  16.3485950  32.5605810  52.6126650  18.1102200
  33.3815430  52.1223220  18.1527680  32.5939890  53.2024310  18.8634040
  20.5569860  55.4120850  21.8843890  21.2379970  55.6759220  22.5031290
  20.2417910  54.5721720  22.2181900  24.7494430  56.4588210  20.9716480
  25.2572650  56.9569180  21.6121500  25.2807670  55.6823410  20.7955840
  36.8505360  54.6293400  24.6745830  36.1457530  55.0175110  24.1560940
  37.1163280  55.3243690  25.2766760  23.0330530  51.0986770  25.2379900
  23.0348970  51.6159160  24.4325800  22.2034840  50.6216950  25.2149830
  29.4201620  61.2106080  16.7369800  28.8018890  61.6755530  16.1732520
  29.9324870  61.9033560  17.1539310  24.2833380  60.7381950  23.4153400
  23.9502760  61.3650870  24.0574470  24.4600060  61.2643830  22.6355070
  32.7967290  54.5527030  20.8829740  32.0922860  54.8411920  21.4632850
  33.1579450  55.3627140  20.5229300  22.7145860  52.8096730  23.2450350
  23.0562670  53.6538780  22.9504220  21.7761670  52.9580470  23.3615690
  23.4952480  62.7062750  25.2302580  24.1126480  63.3813830  24.9487030
  22.6345600  63.1150730  25.1390080  18.7884820  61.8962610  14.1109430
  18.4112800  62.3849710  13.3794330  19.0457890  62.5687890  14.7415960
  34.4130070  64.1702160  23.1457220  33.7293590  64.8401270  23.1373890
  34.9524360  64.3682810  22.3802080  35.8654210  53.9981820  21.2738950
  34.9179120  54.0320800  21.4054380  36.1904200  54.8120770  21.6588310
  26.3973750  50.2979000  19.5694940  26.7048730  49.7425890  18.8530440
  25.4674450  50.4323460  19.3867930  31.9488810  66.0146290  21.8602400
  31.9615970  65.6108580  20.9924660  31.3964030  66.7893580  21.7563830
  33.2434230  62.7362510  16.9492570  33.1330560  61.7936840  17.0741990
  33.2402480  63.0978150  17.8355330  31.3474250  60.9176130  23.1885010
  31.7643040  60.7036240  22.3538470  32.0714070  61.1748920  23.7593630
  28.7854510  58.3627830  16.3055060  27.8583790  58.2965210  16.5343530
  28.9379330  59.3007960  16.1910300  28.7723590  54.6344830  13.3022220
  27.8327260  54.7958790  13.3874680  29.0906850  55.3530510  12.7558210
  35.2936350  59.3163350  23.2801250  34.4654980  59.3856440  22.8051380
  35.8886830  59.9017660  22.8117080  32.8151800  59.9248130  16.8090310
  32.1964220  59.5867680  16.1616610  32.7976250  59.2807890  17.5169500
  32.2578360  56.1032670  24.2256120  31.8449540  56.9286380  24.4796110
  31.5254310  55.5177710  24.0332480  24.3911150  58.8892570  19.0874790
  23.9868150  58.1769820  18.5920690  24.4774270  58.5445810  19.9762830
  24.8592850  62.5760130  21.2514000  24.5621140  61.9705600  20.5721780
  25.8092670  62.6137440  21.1403360  23.1039770  55.6635780  22.8673830
  23.6554360  55.7731120  22.0927080  23.6183280  56.0373380  23.5829060
  32.9478460  66.1492000  24.9137100  32.4709020  66.9564190  24.7209710
  32.2640250  65.4970330  25.0663310  23.9511280  62.3141820  27.9021800
  23.0539810  62.5381790  28.1495200  23.9764150  62.4376760  26.9533200
  30.9916500  59.1634940  13.8163060  31.4309780  58.3257370  13.6700880
  31.7044920  59.7964340  13.9027200  22.7782500  59.1855140  26.4779170
  22.6390270  60.0577940  26.8466570  21.8963860  58.8427950  26.3327110
  29.1011880  64.1031010  17.7844300  29.5407790  64.8455340  17.3699690
  29.0398770  64.3457580  18.7083260  24.5762850  65.1276840  28.6864320
  24.5478280  65.5319790  27.8192750  24.4127820  64.1987200  28.5235920
  34.5733640  50.4177750  12.1304100  34.2606300  50.5104580  13.0303170
  35.3346110  50.9958780  12.0801530  21.0915780  57.7837550  16.5881440
  20.9713380  58.5099640  15.9762710  20.7816670  57.0140460  16.1109350
  36.5277670  65.9103940  29.9828490  37.0037390  66.3886830  30.6617570
  37.1484830  65.8421430  29.2573990  18.7301150  60.9552690  22.3950080
  18.8081570  61.0901460  21.4505800  19.3442830  60.2468580  22.5878200
  19.9748780  62.6552880  18.8056260  19.5676860  62.7967470  17.9509860
  20.8661790  62.3713040  18.6027470  35.9310920  63.1016790  27.1428500
  36.0573980  62.8628670  26.2245680  35.9732300  62.2701330  27.6150580
  29.7927660  66.8044790  25.7123310  30.3072330  66.7152800  26.5145740
  28.9496740  67.1504490  26.0051220  31.7682060  67.0900130  15.1407310
  31.6083200  66.8003070  16.0389140  31.6028770  66.3140260  14.6052540
  24.2470440  66.8698660  16.9178930  24.0712920  65.9534200  16.7046730
  23.3926180  67.2285950  17.1576730  31.4708190  64.5987690  13.7005310
  30.7773350  64.5964980  13.0407590  32.2131050  64.1747010  13.2699480
  31.0358120  66.2250400  17.7753800  31.4915070  65.4439780  18.0892420
  31.3750640  66.9357220  18.3194980  35.7834930  55.1549250  28.1078240
  35.1679200  55.6628920  27.5793700  35.4631350  54.2547580  28.0504180
  18.7860670  61.9966860  24.9344540  18.9491710  61.5272220  24.1163910
  19.2513120  61.4890420  25.5993380  23.5579440  51.1272620  19.9705110
  23.1147590  51.9082160  19.6389630  24.1164430  51.4502510  20.6776050
  27.8449250  53.9941140  25.5740430  27.3828620  54.2024160  26.3860370
  27.4427360  53.1800490  25.2711100  32.8453760  55.2150090  26.7037090
  31.9947350  54.9155840  27.0246160  32.6855550  55.4592100  25.7920910
  29.9403470  56.7151840  28.8035880  30.2656880  55.8815590  28.4638110
  30.7283800  57.2380360  28.9514210  26.6738260  50.7483320  14.8510940
  26.0492440  50.7443190  15.5764250  26.5868380  49.8814280  14.4546910
  25.5955340  51.6719950  21.8294710  25.8927670  52.5782780  21.7486730
  26.1440900  51.1838730  21.2154280  23.3493660  56.2506190  17.6986360
  23.1234580  56.0343360  18.6032980  22.5686190  56.6834650  17.3532330
  30.5791420  56.2569560  16.2977010  29.9800310  56.9805360  16.1140630
  31.1271030  56.1946340  15.5153460  25.7892870  57.1491770  28.3646630
  25.6936470  56.2086500  28.2147030  26.6324850  57.3706840  27.9694700
  29.1856290  54.8933100  18.3280290  29.5785860  55.2105300  17.5148980
  29.5473140  54.0144980  18.4424810  20.9203410  53.5605440  26.5180410
  20.5266800  54.4080650  26.7253190  20.2321810  52.9231810  26.7089050
  27.4948460  53.6440410  29.5877150  26.8046780  53.4512610  30.2223240
  28.2380760  53.9275050  30.1201450  18.2220460  51.4833900  20.5510490
  17.9333510  52.0536760  21.2635470  18.9666220  51.0038350  20.9141720
  18.4090690  55.4254020  11.7613210  18.3265360  56.3684780  11.9028200
  18.0573750  55.2828930  10.8825560  29.7711430  57.4838850  22.4231070
  29.0392550  57.9925660  22.7721170  29.3735770  56.6668830  22.1219850
  26.2088820  54.1593050  20.8283560  26.2124880  53.7183000  19.9788100
  27.1039940  54.4810380  20.9355380  22.0591200  54.0419540  19.7877770
  21.7191250  54.5194770  20.5444820  21.2968520  53.5884660  19.4278870
  26.2708970  55.1605130  13.8190320  26.3921790  55.1191610  14.7676140
  25.8857480  56.0229280  13.6637050  30.2337340  52.9372530  21.8354010
  30.2510080  53.3881180  22.6795860  29.9852920  52.0378170  22.0487450
  25.2830470  57.4706270  13.2173620  24.7147370  57.0224520  12.5909530
  25.9919470  57.8299050  12.6838770  33.6608090  50.3504710  27.6740390
  33.9853860  49.6194370  28.1998370  33.6964600  50.0318350  26.7721380
  20.3599650  61.3718290  27.0940350  19.9754440  60.7311960  27.6923310
  20.6711840  62.0754410  27.6635080  26.5096790  58.2194830  22.5748970
  26.8766920  57.7453400  23.3210310  26.3201850  59.0936400  22.9157310
  19.3737280  52.9638520  18.7042440  19.0884200  52.5994190  19.5421060
  19.3116140  52.2318980  18.0905580  24.2996160  57.2603470  24.8933180
  23.9953230  58.1395450  25.1183540  25.2542620  57.3203260  24.9290620
  22.8277950  61.4664460  15.4900030  22.0540210  60.9262080  15.3298750
  23.5572580  60.9471070  15.1517790  33.5865930  60.4629820  21.2826420
  34.3065050  60.9585110  20.8922530  33.3847750  59.7847710  20.6380290
  29.0475870  51.8567780  15.4255810  28.2340480  51.3580950  15.3501120
  28.8537820  52.6966030  15.0092160  28.9684730  60.5338880  27.1695420
  28.9022040  59.6134550  26.9153010  28.3389870  60.6314320  27.8840060
  31.7624260  56.2287430  13.7217970  32.6503880  56.5404660  13.5469310
  31.7329350  55.3559680  13.3298550  22.8715350  61.1344840  19.1278840
  23.3894020  60.3313100  19.0735730  22.4199370  61.0723980  19.9695670
  27.7584850  62.4011120  14.4006140  28.1000550  63.1453350  13.9049460
  26.9297560  62.7142240  14.7630970  20.3559890  58.1006210  26.0404540
  19.9974830  58.7660060  26.6277880  20.0614450  57.2689760  26.4117160
  23.5573010  58.5590450  28.9244090  23.2573150  58.7047630  28.0271910
  24.3284250  57.9995740  28.8317480  28.9001460  63.3559450  26.9199220
  28.9146000  62.4240410  26.7018130  28.1926560  63.4419210  27.5588990
  34.0338530  57.5399270  13.1897830  33.9502250  57.9713490  12.3394270
  34.7532720  57.9997620  13.6224650  35.1112670  59.9966790  26.2667800
  34.3860860  60.5895570  26.0697190  35.6388130  59.9890330  25.4681170
  35.0625780  64.3941530  15.9179960  34.4201940  63.7397150  16.1923680
  34.6756440  64.7996620  15.1420630  30.6412260  61.7226960  19.7651650
  30.9936080  61.1255090  19.1053020  29.7574590  61.3971190  19.9359900
  26.7275540  62.4824650  17.1722060  27.4146670  63.0293860  17.5529650
  25.9407960  63.0265380  17.2071670  18.8667940  58.0997470  12.6639140
  19.7362790  58.3822270  12.9475060  18.3758260  58.9133340  12.5487950
  26.0302750  59.4870680  16.7847420  26.4865530  60.2975930  17.0107610
  25.6790960  59.1693820  17.6165910  28.3335360  64.9977020  24.0139720
  28.9777580  65.2036400  24.6913140  28.6964800  64.2365420  23.5610570
  21.9314530  49.8308330  17.2569940  21.8029160  49.8226230  18.2054860
  21.1076550  50.1691420  16.9060950  29.6067440  63.0009370  22.7317170
  30.2489670  62.3002530  22.8449340  30.1316790  63.7807810  22.5514060
  33.4523160  63.2857990  12.4556310  33.2260740  62.5688430  13.0480950
  33.0619360  63.0370430  11.6178060  31.3805060  63.8004270  25.9353230
  31.7161300  64.3870960  26.6131150  30.4605400  63.6696980  26.1651020
  19.2339190  67.3124850  13.2300770  19.5936830  67.9114190  12.5758040
  19.0931530  67.8584740  14.0035800  18.9308460  51.5899450  26.7176640
  18.2166980  51.7896370  27.3229250  19.3503500  50.8139020  27.0891440
  33.0339410  61.2029930  14.1170470  32.7461110  61.6642620  14.9048350
  33.8291580  60.7427700  14.3854690  19.2181050  65.5779710  27.7043170
  19.3272170  64.6374450  27.5638560  18.5661610  65.8434460  27.0556900
  27.2093640  63.8495600  29.1041290  26.8890510  63.1304840  29.6486980
  26.5352000  64.5250670  29.1777350  25.2507810  64.6956050  14.0474440
  25.2417910  65.4285740  13.4318950  24.3306170  64.4487630  14.1401400
  20.8514450  59.9170940  14.7921200  20.2442400  60.6569840  14.8016500
  21.3263800  60.0070300  13.9659400  30.4247240  54.0821760  24.4678090
  30.7928060  53.2616970  24.7957660  29.5645440  54.1423650  24.8833740
  33.7909270  53.0378700  15.2765650  33.1622430  53.1424370  14.5623880
  33.2961190  53.2575480  16.0659530  28.2367410  64.7584290  12.7099630
  28.3379390  64.5548280  11.7801610  27.3369150  64.5042570  12.9147410
  25.7593300  55.3164650  16.6923530  25.0509450  55.7850990  17.1337140
  26.0437780  54.6586660  17.3268720  27.3849230  56.7361350  24.6916060
  27.8834480  57.2107170  25.3567910  27.5272180  55.8124870  24.8986090
  29.7908730  52.0415310  18.1319320  29.6676510  52.0601440  17.1828830
  30.7393290  52.0894250  18.2517720  26.8785520  67.2770610  17.4047300
  27.1327020  67.2392000  16.4826670  25.9298000  67.1503940  17.3975550
  23.9628320  53.6249730  14.0674240  24.8118850  54.0619880  14.0014430
  23.5959590  53.9369990  14.8946300  34.5916090  52.9529310  25.5344450
  34.0889690  53.6934710  25.8738260  35.4072750  53.3413310  25.2181240
  32.8838100  58.1962490  18.9805810  31.9428240  58.2112720  19.1553500
  33.1982170  57.4098450  19.4266110  22.8619740  59.8782090  12.5409770
  23.6283010  59.7663450  13.1035200  22.9394430  59.1820060  11.8886540
  21.5566500  57.3107160  13.2242660  21.6370090  56.3634670  13.3360060
  22.4486250  57.6414040  13.3303320  34.8863680  65.3671340  20.6560070
  35.0111100  66.1902510  21.1283880  35.7529240  65.1562070  20.3084220
  22.3581210  67.4602550  20.3277200  23.0943690  66.9118010  20.5985770
  22.7422130  68.3258560  20.1883190  19.2426690  63.5276120  16.2018710
  18.3166470  63.7697260  16.1924120  19.7083120  64.3550380  16.0803460
  21.3639490  66.6448620  29.5162780  22.1652220  66.9660670  29.9298180
  20.8491310  66.2844200  30.2382690  25.4683520  66.6332860  12.1502770
  26.2612130  66.9221690  11.6984560  24.9487870  66.2025030  11.4715250
  30.2004120  62.7528490  29.4638190  29.5942280  62.7760090  28.7233940
  29.8958230  62.0211530  30.0005440  31.6304490  66.4808780  28.0747600
  32.5826240  66.3966800  28.0247840  31.4832710  67.1450490  28.7481390
  34.5213690  65.8602990  13.5739510  34.2355200  65.4468130  12.7593690
  34.3233240  66.7890700  13.4540030  19.0837300  59.1322080  28.4598830
  19.5876320  58.5529360  29.0315060  18.3444720  59.4162310  28.9975200
  25.9860920  61.8536270  12.0145120  25.8811560  61.2388620  12.7406500
  25.8185140  61.3302160  11.2308130  26.1375240  60.5393070  27.9934350
  25.3720910  61.1078070  27.9089020  26.3191200  60.2469280  27.1002580
  29.2263650  60.9156300  12.6187110  28.6773750  61.3625600  13.2629850
  29.8482910  60.4105550  13.1424780  33.2798590  62.2698400  28.5509370
  34.0208060  62.6074160  28.0476830  32.5171270  62.4390460  27.9979140
  21.1160380  57.2751670  29.3548900  21.1565720  56.9765540  30.2634130
  21.9705880  57.6759280  29.1956420  24.8938770  59.8747220  14.5152410
  25.3155190  59.7087090  15.3583800  25.0189610  59.0647450  14.0207550
  23.0566190  55.8543770  27.3223390  22.5262650  55.3634720  26.6946730
  23.7254260  56.2827970  26.7881320  27.4066410  58.8984830  11.7629510
  27.9272070  58.1833850  11.3970660  28.0534810  59.5370700  12.0630020
  31.9544250  60.3213230  27.0864580  32.3685270  60.4758310  27.9355000
  31.0195250  60.4468450  27.2490360  32.4266420  57.6609390  29.0903730
  33.0087190  56.9061710  29.0024210  32.6028190  58.1916830  28.3135210
  23.5438490  52.8206140  27.4020680  23.4495360  52.2026890  26.6771550
  22.9635880  53.5472430  27.1750590  26.3099930  51.3779380  24.4348070
  25.8617230  51.4003640  23.5893620  25.6765130  50.9798400  25.0318370
  26.7159480  60.2733710  25.0560510  27.1347590  61.1166440  24.8836750
  25.7968110  60.4105750  24.8267290  29.0523380  58.0049890  26.4398350
  29.1719590  57.4091030  27.1793190  29.9117380  58.0419580  26.0199650
  31.3911280  58.5587080  25.0160860  30.8646500  59.0829700  24.4126000
  31.7342620  59.1914470  25.6470590  23.7897670  55.9480450  11.4610570
  23.5886730  55.0847810  11.8223910  23.6189720  55.8613810  10.5232170
  24.5666900  66.5786720  26.1718240  24.0287990  67.3032780  25.8526940
  24.8200860  66.1017060  25.3815580  25.8192150  54.5471240  27.6974170
  26.4091840  54.2387090  28.3851990  25.0012390  54.0750990  27.8534070
  30.6385580  54.1637050  27.9307190  29.9501100  53.5018590  27.8657180
  31.3591600  53.7175320  28.3755650  31.2685980  50.7588680  13.9897450
  31.5488270  49.9156580  14.3456870  30.4951710  50.9911790  14.5036200
  22.5880470  53.0481070  11.4488450  22.8906370  53.0548500  10.5407600
  23.3275060  52.6978930  11.9456110  27.4229110  67.8137930  26.4304890
  27.3487810  68.7173070  26.7377260  26.5207950  67.4949830  26.4026960
  25.8065400  51.9915690  12.4344650  25.4587400  51.3139680  11.8547100
  26.0078170  51.5305200  13.2488040  27.9714440  66.9796440  14.0531250
  28.8665230  67.3181410  14.0750010  28.0032070  66.2575850  13.4255530
  21.6110600  62.3523490  12.2818250  22.0485470  62.8953160  12.9375830
  22.0958330  61.5270440  12.2914590  18.8256400  65.1412520  19.7338510
  19.1559410  64.2733580  19.5017150  19.2547400  65.3471040  20.5643470
  23.4218320  63.4721530  17.3940480  23.1213860  63.3486500  18.2944390
  23.3155810  62.6130120  16.9856210  19.3146610  66.0083110  22.4720140
  18.8777600  66.1883910  23.3044290  19.8824290  66.7657730  22.3301860
  34.9508790  65.5100110  26.7597450  34.3510780  65.5692670  26.0161370
  35.0802690  64.5705090  26.8894300  36.1910240  63.2517930  12.0967160
  35.3603200  63.3194580  12.5674390  36.3682070  64.1422050  11.7934020
  35.6466700  59.9965410  14.6001360  36.4085610  60.5662060  14.7061050
  35.6621070  59.4292610  15.3709670  19.1471040  58.5203340  18.8309020
  18.4919880  58.2514980  18.1868720  19.9848990  58.4107820  18.3811000
  36.6526670  60.8515510  19.4443290  37.0235500  60.0682830  19.0379260
  37.2928600  61.5404610  19.2660590  33.6360430  62.2352090  24.8573610
  32.8220270  62.6649250  25.1199400  34.0434630  62.8470500  24.2442660
  35.6985870  60.2899780  11.7573880  35.9734710  61.1978660  11.6293100
  35.5096610  60.2262310  12.6935870  32.0961480  53.3144630  13.0527510
  32.5146360  53.1275610  12.2124170  31.7897540  52.4623680  13.3630440
  35.5951210  58.2268770  16.7503310  35.2194810  57.4596700  16.3184600
  34.8654330  58.6091470  17.2378240  20.1846970  58.9055910  23.3712360
  20.5520010  58.8183310  24.2508380  19.6157790  58.1422460  23.2719220
  34.9850830  57.3740290  26.3842830  34.7536920  57.1453040  25.4840780
  35.2455380  58.2939840  26.3387720  19.7362970  55.8165000  27.2770780
  18.8419020  55.7831760  27.6164490  20.2760520  56.0151790  28.0422030
  33.4238900  52.5996720  29.1622530  34.3009080  52.6080120  29.5456530
  33.4359740  51.8627560  28.5514880  18.3609120  55.7302270  14.7734350
  17.4573200  55.9932470  14.5986010  18.8449740  56.0013440  13.9934310
  34.8702170  56.4526260  20.0510550  35.3939650  55.9588910  19.4200720
  35.4561590  56.5876620  20.7958120  35.0491890  56.5366130  23.5730100
  34.0994600  56.5029670  23.6875090  35.2304900  57.4466240  23.3379870
  20.9036330  54.7867810  12.6828730  21.6128030  54.3651030  12.1976010
  20.1876270  54.8543040  12.0512080  20.5510490  50.8407140  11.7231380
  21.2738620  51.3816080  12.0412600  20.8235010  50.5670560  10.8472920
  34.3602140  55.7099610  15.9902960  34.8561260  55.4770480  16.7751840
  34.1618210  54.8711450  15.5740600  20.2402680  50.0913330  21.6254000
  20.8878870  49.5410710  21.1849160  20.6604520  50.3456480  22.4469810
  35.7889300  54.3460560  18.5240640  35.6788580  54.1916600  19.4622910
  36.5496890  53.8181500  18.2816050  34.1355020  50.2854690  24.9823640
  34.7727240  50.8988830  25.3482830  34.2829910  50.3215350  24.0372870
  36.6779570  52.1768480  11.7646780  37.6028880  52.0449660  11.5565070
  36.6555360  52.2561300  12.7183230  36.7518060  52.9479140  14.3903490
  35.9569560  52.8824260  14.9196400  36.9561340  53.8829780  14.3788840
  33.6936480  66.9870690  18.3841880  34.2895550  66.6655260  17.7076300
  33.9514630  66.5142510  19.1755150  19.9934680  50.2469000  24.3679320
  19.6449500  50.7032820  25.1337500  19.6622380  49.3526130  24.4501750
  21.5999050  63.4188600  28.5332510  21.5568680  63.0481510  29.4146970
  21.7310060  64.3566170  28.6734330  25.3005080  64.9748190  24.1342230
  25.0596440  65.2422750  23.2472750  26.2407720  65.1453920  24.1893090
  27.5059500  51.4380880  27.8898740  27.4448390  52.0302710  28.6394150
  28.4459880  51.3306840  27.7449000  30.1434060  51.0950940  27.5291030
  30.7574470  51.4130230  26.8672110  30.6883620  50.6099530  28.1486890
  36.5609240  66.9942570  24.9352870  36.0667520  67.3911440  24.2180000
  35.9522530  66.3691780  25.3290150  20.6655320  49.7745200  27.6430090
  21.2138310  49.5933250  26.8796200  20.7310630  48.9839310  28.1786400
  21.4387080  66.3650850  25.6530290  20.8447400  66.2335550  26.3920330
  21.4310920  65.5288990  25.1872390  30.8842100  49.6583080  23.8560320
  30.0101940  49.9918190  23.6533250  30.7752850  49.1856260  24.6812190
  31.7914080  51.8653950  25.2402040  31.4627440  51.0505710  24.8603770
  32.7396380  51.8223760  25.1167730  34.2448690  67.6365990  22.2139610
  33.7851660  68.3881800  21.8397630  33.6161150  66.9172460  22.1554410
  21.0699310  63.7309230  24.6038330  20.3433370  63.1114520  24.5364280
  21.1308460  64.1249840  23.7336410  24.6744410  65.9454230  21.3887740
  25.1909430  65.3341590  20.8636000  25.3241790  66.4483010  21.8798750
  27.4139910  66.8362720  22.2156720  27.7017720  66.5817020  21.3389730
  27.9263130  66.2840080  22.8062290  28.6316920  50.5752920  22.7953230
  27.8488710  51.0498420  23.0749990  28.3379850  49.6707750  22.6866410
  33.1837990  51.2776020  20.8402320  33.6246080  51.2221120  19.9923920
  32.9145580  52.1934030  20.9112500  35.0476560  50.9091260  18.8511140
  34.9864960  49.9652480  18.7042160  35.8268590  51.0171350  19.3964600
  19.3529310  67.0483620  17.8135090  19.1851350  66.4154300  18.5116980
  18.4863820  67.2543020  17.4629280  19.9757330  50.8800400  15.3166950
  20.7336690  50.9929280  14.7430980  19.5134500  51.7169600  15.2710380
  26.5171140  52.9939670  18.3069260  25.7045650  52.6196560  17.9665140
  27.0212780  52.2384750  18.6090450  31.0196120  49.6582120  19.5452330
  31.6225490  50.2302330  20.0200850  30.2789110  50.2221560  19.3226230
  34.1630720  50.0603680  14.8192610  34.3581350  50.9587130  15.0860040
  33.3760590  49.8290760  15.3125560  20.9592010  65.7416850  15.2585230
  20.4339630  66.1224880  14.5547190  20.8836590  66.3667620  15.9794940
  22.3482480  51.4064450  13.8568920  22.8775240  50.6194250  13.7276870
  22.9810800  52.0855640  14.0904450  24.5420320  51.1439590  16.9114310
  23.9123060  50.4426900  17.0784440  24.0025460  51.9043720  16.6947470
  27.4812270  67.7578820  29.5824920  28.4079580  67.5223090  29.6260880
  27.4662700  68.5850820  29.1010950  35.7157330  67.3004390  16.5799170
  35.8909520  66.6142130  15.9360090  35.0178900  67.8251440  16.1875840
  24.6675880  50.4223570  29.3466800  24.3860150  50.9257170  28.5827620
  25.0495580  49.6245320  28.9808930  23.5584980  67.6899230  14.1334480
  24.2903800  67.4058510  13.5858370  23.8178650  67.4512510  15.0233860
  22.7199770  63.8063960  14.1380810  22.0908650  64.2749060  14.6866640
  22.8347600  62.9613180  14.5727000  31.2691340  49.8377150  29.9247270
  31.1556790  50.1571760  30.8198790  32.0861080  50.2389660  29.6284550
  34.0489830  66.9848680  29.4065960  34.8415150  66.4897910  29.1991920
  34.3422980  67.6638820  30.0141570  28.3067530  59.6348640   2.1691280
  27.5309630  59.1549080   2.4589850  28.9580460  58.9554290   1.9947440
  22.3233360  59.9468450   3.0467040  21.4918240  59.6917160   3.4463550
  22.9314340  60.0179220   3.7824960  22.3034620  63.9808540   3.2425060
  22.6062660  63.0906280   3.0635280  23.0478210  64.5378760   3.0147310
  18.6958320  57.5075990   2.7149130  19.2674430  56.7398190   2.7152770
  18.6959860  57.8064750   1.8055740  27.7476520  62.3105830   2.1761440
  27.6784800  61.3695770   2.0150570  28.5096380  62.4007240   2.7484010
  19.9383190  52.9160350   4.5018060  19.7586030  52.0186100   4.7820820
  19.5363270  53.4632220   5.1765010  20.5569860  55.4120850   3.1100400
  21.2379970  55.6759220   3.7287800  20.2417910  54.5721720   3.4438410
  24.7494430  56.4588210   2.1972990  25.2572650  56.9569180   2.8378010
  25.2807670  55.6823410   2.0212350  36.8505360  54.6293400   5.9002340
  36.1457530  55.0175110   5.3817450  37.1163280  55.3243690   6.5023270
  23.0330530  51.0986770   6.4636410  23.0348970  51.6159160   5.6582310
  22.2034840  50.6216950   6.4406340  24.2833380  60.7381950   4.6409910
  23.9502760  61.3650870   5.2830980  24.4600060  61.2643830   3.8611580
  32.7967290  54.5527030   2.1086250  32.0922860  54.8411920   2.6889360
  33.1579450  55.3627140   1.7485810  22.7145860  52.8096730   4.4706860
  23.0562670  53.6538780   4.1760730  21.7761670  52.9580470   4.5872200
  23.4952480  62.7062750   6.4559090  24.1126480  63.3813830   6.1743540
  22.6345600  63.1150730   6.3646590  34.4130070  64.1702160   4.3713730
  33.7293590  64.8401270   4.3630400  34.9524360  64.3682810   3.6058590
  35.8654210  53.9981820   2.4995460  34.9179120  54.0320800   2.6310890
  36.1904200  54.8120770   2.8844820  31.9488810  66.0146290   3.0858910
  31.9615970  65.6108580   2.2181170  31.3964030  66.7893580   2.9820340
  31.3474250  60.9176130   4.4141520  31.7643040  60.7036240   3.5794980
  32.0714070  61.1748920   4.9850140  35.2936350  59.3163350   4.5057760
  34.4654980  59.3856440   4.0307890  35.8886830  59.9017660   4.0373590
  32.2578360  56.1032670   5.4512630  31.8449540  56.9286380   5.7052620
  31.5254310  55.5177710   5.2588990  24.8592850  62.5760130   2.4770510
  24.5621140  61.9705600   1.7978290  25.8092670  62.6137440   2.3659870
  23.1039770  55.6635780   4.0930340  23.6554360  55.7731120   3.3183590
  23.6183280  56.0373380   4.8085570  32.9478460  66.1492000   6.1393610
  32.4709020  66.9564190   5.9466220  32.2640250  65.4970330   6.2919820
  23.9511280  62.3141820   9.1278310  23.0539810  62.5381790   9.3751710
  23.9764150  62.4376760   8.1789710  22.7782500  59.1855140   7.7035680
  22.6390270  60.0577940   8.0723080  21.8963860  58.8427950   7.5583620
  24.5762850  65.1276840   9.9120830  24.5478280  65.5319790   9.0449260
  24.4127820  64.1987200   9.7492430  36.5277670  65.9103940  11.2085000
  37.0037390  66.3886830  11.8874080  37.1484830  65.8421430  10.4830500
  18.7301150  60.9552690   3.6206590  18.8081570  61.0901460   2.6762310
  19.3442830  60.2468580   3.8134710  35.9310920  63.1016790   8.3685010
  36.0573980  62.8628670   7.4502190  35.9732300  62.2701330   8.8407090
  29.7927660  66.8044790   6.9379820  30.3072330  66.7152800   7.7402250
  28.9496740  67.1504490   7.2307730  35.7834930  55.1549250   9.3334750
  35.1679200  55.6628920   8.8050210  35.4631350  54.2547580   9.2760690
  18.7860670  61.9966860   6.1601050  18.9491710  61.5272220   5.3420420
  19.2513120  61.4890420   6.8249890  27.8449250  53.9941140   6.7996940
  27.3828620  54.2024160   7.6116880  27.4427360  53.1800490   6.4967610
  32.8453760  55.2150090   7.9293600  31.9947350  54.9155840   8.2502670
  32.6855550  55.4592100   7.0177420  29.9403470  56.7151840  10.0292390
  30.2656880  55.8815590   9.6894620  30.7283800  57.2380360  10.1770720
  25.5955340  51.6719950   3.0551220  25.8927670  52.5782780   2.9743240
  26.1440900  51.1838730   2.4410790  25.7892870  57.1491770   9.5903140
  25.6936470  56.2086500   9.4403540  26.6324850  57.3706840   9.1951210
  20.9203410  53.5605440   7.7436920  20.5266800  54.4080650   7.9509700
  20.2321810  52.9231810   7.9345560  27.4948460  53.6440410  10.8133660
  26.8046780  53.4512610  11.4479750  28.2380760  53.9275050  11.3457960
  18.2220460  51.4833900   1.7767000  17.9333510  52.0536760   2.4891980
  18.9666220  51.0038350   2.1398230  29.7711430  57.4838850   3.6487580
  29.0392550  57.9925660   3.9977680  29.3735770  56.6668830   3.3476360
  30.2337340  52.9372530   3.0610520  30.2510080  53.3881180   3.9052370
  29.9852920  52.0378170   3.2743960  33.6608090  50.3504710   8.8996900
  33.9853860  49.6194370   9.4254880  33.6964600  50.0318350   7.9977890
  20.3599650  61.3718290   8.3196860  19.9754440  60.7311960   8.9179820
  20.6711840  62.0754410   8.8891590  26.5096790  58.2194830   3.8005480
  26.8766920  57.7453400   4.5466820  26.3201850  59.0936400   4.1413820
  24.2996160  57.2603470   6.1189690  23.9953230  58.1395450   6.3440050
  25.2542620  57.3203260   6.1547130  33.5865930  60.4629820   2.5082930
  34.3065050  60.9585110   2.1179040  33.3847750  59.7847710   1.8636800
  28.9684730  60.5338880   8.3951930  28.9022040  59.6134550   8.1409520
  28.3389870  60.6314320   9.1096570  20.3559890  58.1006210   7.2661050
  19.9974830  58.7660060   7.8534390  20.0614450  57.2689760   7.6373670
  23.5573010  58.5590450  10.1500600  23.2573150  58.7047630   9.2528420
  24.3284250  57.9995740  10.0573990  28.9001460  63.3559450   8.1455730
  28.9146000  62.4240410   7.9274640  28.1926560  63.4419210   8.7845500
  35.1112670  59.9966790   7.4924310  34.3860860  60.5895570   7.2953700
  35.6388130  59.9890330   6.6937680  28.3335360  64.9977020   5.2396230
  28.9777580  65.2036400   5.9169650  28.6964800  64.2365420   4.7867080
  29.6067440  63.0009370   3.9573680  30.2489670  62.3002530   4.0705850
  30.1316790  63.7807810   3.7770570  31.3805060  63.8004270   7.1609740
  31.7161300  64.3870960   7.8387660  30.4605400  63.6696980   7.3907530
  18.9308460  51.5899450   7.9433150  18.2166980  51.7896370   8.5485760
  19.3503500  50.8139020   8.3147950  19.2181050  65.5779710   8.9299680
  19.3272170  64.6374450   8.7895070  18.5661610  65.8434460   8.2813410
  27.2093640  63.8495600  10.3297800  26.8890510  63.1304840  10.8743490
  26.5352000  64.5250670  10.4033860  30.4247240  54.0821760   5.6934600
  30.7928060  53.2616970   6.0214170  29.5645440  54.1423650   6.1090250
  27.3849230  56.7361350   5.9172570  27.8834480  57.2107170   6.5824420
  27.5272180  55.8124870   6.1242600  34.5916090  52.9529310   6.7600960
  34.0889690  53.6934710   7.0994770  35.4072750  53.3413310   6.4437750
  21.3639490  66.6448620  10.7419290  22.1652220  66.9660670  11.1554690
  20.8491310  66.2844200  11.4639200  30.2004120  62.7528490  10.6894700
  29.5942280  62.7760090   9.9490450  29.8958230  62.0211530  11.2261950
  31.6304490  66.4808780   9.3004110  32.5826240  66.3966800   9.2504350
  31.4832710  67.1450490   9.9737900  19.0837300  59.1322080   9.6855340
  19.5876320  58.5529360  10.2571570  18.3444720  59.4162310  10.2231710
  26.1375240  60.5393070   9.2190860  25.3720910  61.1078070   9.1345530
  26.3191200  60.2469280   8.3259090  33.2798590  62.2698400   9.7765880
  34.0208060  62.6074160   9.2733340  32.5171270  62.4390460   9.2235650
  21.1160380  57.2751670  10.5805410  21.1565720  56.9765540  11.4890640
  21.9705880  57.6759280  10.4212930  23.0566190  55.8543770   8.5479900
  22.5262650  55.3634720   7.9203240  23.7254260  56.2827970   8.0137830
  31.9544250  60.3213230   8.3121090  32.3685270  60.4758310   9.1611510
  31.0195250  60.4468450   8.4746870  32.4266420  57.6609390  10.3160240
  33.0087190  56.9061710  10.2280720  32.6028190  58.1916830   9.5391720
  23.5438490  52.8206140   8.6277190  23.4495360  52.2026890   7.9028060
  22.9635880  53.5472430   8.4007100  26.3099930  51.3779380   5.6604580
  25.8617230  51.4003640   4.8150130  25.6765130  50.9798400   6.2574880
  26.7159480  60.2733710   6.2817020  27.1347590  61.1166440   6.1093260
  25.7968110  60.4105750   6.0523800  29.0523380  58.0049890   7.6654860
  29.1719590  57.4091030   8.4049700  29.9117380  58.0419580   7.2456160
  31.3911280  58.5587080   6.2417370  30.8646500  59.0829700   5.6382510
  31.7342620  59.1914470   6.8727100  24.5666900  66.5786720   7.3974750
  24.0287990  67.3032780   7.0783450  24.8200860  66.1017060   6.6072090
  25.8192150  54.5471240   8.9230680  26.4091840  54.2387090   9.6108500
  25.0012390  54.0750990   9.0790580  30.6385580  54.1637050   9.1563700
  29.9501100  53.5018590   9.0913690  31.3591600  53.7175320   9.6012160
  27.4229110  67.8137930   7.6561400  27.3487810  68.7173070   7.9633770
  26.5207950  67.4949830   7.6283470  19.3146610  66.0083110   3.6976650
  18.8777600  66.1883910   4.5300800  19.8824290  66.7657730   3.5558370
  34.9508790  65.5100110   7.9853960  34.3510780  65.5692670   7.2417880
  35.0802690  64.5705090   8.1150810  33.6360430  62.2352090   6.0830120
  32.8220270  62.6649250   6.3455910  34.0434630  62.8470500   5.4699170
  20.1846970  58.9055910   4.5968870  20.5520010  58.8183310   5.4764890
  19.6157790  58.1422460   4.4975730  34.9850830  57.3740290   7.6099340
  34.7536920  57.1453040   6.7097290  35.2455380  58.2939840   7.5644230
  19.7362970  55.8165000   8.5027290  18.8419020  55.7831760   8.8421000
  20.2760520  56.0151790   9.2678540  33.4238900  52.5996720  10.3879040
  34.3009080  52.6080120  10.7713040  33.4359740  51.8627560   9.7771390
  35.0491890  56.5366130   4.7986610  34.0994600  56.5029670   4.9131600
  35.2304900  57.4466240   4.5636380  20.2402680  50.0913330   2.8510510
  20.8878870  49.5410710   2.4105670  20.6604520  50.3456480   3.6726320
  34.1355020  50.2854690   6.2080150  34.7727240  50.8988830   6.5739340
  34.2829910  50.3215350   5.2629380  19.9934680  50.2469000   5.5935830
  19.6449500  50.7032820   6.3594010  19.6622380  49.3526130   5.6758260
  21.5999050  63.4188600   9.7589020  21.5568680  63.0481510  10.6403480
  21.7310060  64.3566170   9.8990840  25.3005080  64.9748190   5.3598740
  25.0596440  65.2422750   4.4729260  26.2407720  65.1453920   5.4149600
  27.5059500  51.4380880   9.1155250  27.4448390  52.0302710   9.8650660
  28.4459880  51.3306840   8.9705510  30.1434060  51.0950940   8.7547540
  30.7574470  51.4130230   8.0928620  30.6883620  50.6099530   9.3743400
  36.5609240  66.9942570   6.1609380  36.0667520  67.3911440   5.4436510
  35.9522530  66.3691780   6.5546660  20.6655320  49.7745200   8.8686600
  21.2138310  49.5933250   8.1052710  20.7310630  48.9839310   9.4042910
  21.4387080  66.3650850   6.8786800  20.8447400  66.2335550   7.6176840
  21.4310920  65.5288990   6.4128900  30.8842100  49.6583080   5.0816830
  30.0101940  49.9918190   4.8789760  30.7752850  49.1856260   5.9068700
  31.7914080  51.8653950   6.4658550  31.4627440  51.0505710   6.0860280
  32.7396380  51.8223760   6.3424240  34.2448690  67.6365990   3.4396120
  33.7851660  68.3881800   3.0654140  33.6161150  66.9172460   3.3810920
  21.0699310  63.7309230   5.8294840  20.3433370  63.1114520   5.7620790
  21.1308460  64.1249840   4.9592920  24.6744410  65.9454230   2.6144250
  25.1909430  65.3341590   2.0892510  25.3241790  66.4483010   3.1055260
  27.4139910  66.8362720   3.4413230  27.7017720  66.5817020   2.5646240
  27.9263130  66.2840080   4.0318800  28.6316920  50.5752920   4.0209740
  27.8488710  51.0498420   4.3006500  28.3379850  49.6707750   3.9122920
  27.4812270  67.7578820  10.8081430  28.4079580  67.5223090  10.8517390
  27.4662700  68.5850820  10.3267460  24.6675880  50.4223570  10.5723310
  24.3860150  50.9257170   9.8084130  25.0495580  49.6245320  10.2065440
  31.2691340  49.8377150  11.1503780  31.1556790  50.1571760  12.0455300
  32.0861080  50.2389660  10.8541060  34.0489830  66.9848680  10.6322470
  34.8415150  66.4897910  10.4248430  34.3422980  67.6638820  11.2398080
  30.1749490  39.0826130  94.1599460  30.0943540  38.1680740  93.8891170
  29.7613910  39.5793200  93.4539170  32.3274960  45.2665340  94.8207860
  31.8656490  44.4952580  95.1495030  33.1400510  45.2931410  95.3260310
  20.7325310  36.1326850  90.7026880  19.8442010  36.4742820  90.6006760
  21.0166500  35.9327170  89.8107710  28.5538270  47.5523350  94.4411850
  27.9349710  48.0080850  93.8706290  29.4090050  47.7074810  94.0401550
  22.9086700  34.7158350  91.7365260  23.0153450  35.6162080  92.0434020
  21.9979060  34.6676320  91.4459910  32.5605810  33.8383160  93.2076160
  33.3815430  33.3479730  93.2501640  32.5939890  34.4280820  93.9608000
  29.4201620  42.4362590  91.8343760  28.8018890  42.9012040  91.2706480
  29.9324870  43.1290070  92.2513270  18.7884820  43.1219120  89.2083390
  18.4112800  43.6106220  88.4768290  19.0457890  43.7944400  89.8389920
  26.3973750  31.5235510  94.6668900  26.7048730  30.9682400  93.9504400
  25.4674450  31.6579970  94.4841890  33.2434230  43.9619020  92.0466530
  33.1330560  43.0193350  92.1715950  33.2402480  44.3234660  92.9329290
  28.7854510  39.5884340  91.4029020  27.8583790  39.5221720  91.6317490
  28.9379330  40.5264470  91.2884260  28.7723590  35.8601340  88.3996180
  27.8327260  36.0215300  88.4848640  29.0906850  36.5787020  87.8532170
  32.8151800  41.1504640  91.9064270  32.1964220  40.8124190  91.2590570
  32.7976250  40.5064400  92.6143460  24.3911150  40.1149080  94.1848750
  23.9868150  39.4026330  93.6894650  24.4774270  39.7702320  95.0736790
  30.9916500  40.3891450  88.9137020  31.4309780  39.5513880  88.7674840
  31.7044920  41.0220850  89.0001160  29.1011880  45.3287520  92.8818260
  29.5407790  46.0711850  92.4673650  29.0398770  45.5714090  93.8057220
  34.5733640  31.6434260  87.2278060  34.2606300  31.7361090  88.1277130
  35.3346110  32.2215290  87.1775490  21.0915780  39.0094060  91.6855400
  20.9713380  39.7356150  91.0736670  20.7816670  38.2396970  91.2083310
  19.9748780  43.8809390  93.9030220  19.5676860  44.0223980  93.0483820
  20.8661790  43.5969550  93.7001430  31.7682060  48.3156640  90.2381270
  31.6083200  48.0259580  91.1363100  31.6028770  47.5396770  89.7026500
  24.2470440  48.0955170  92.0152890  24.0712920  47.1790710  91.8020690
  23.3926180  48.4542460  92.2550690  31.4708190  45.8244200  88.7979270
  30.7773350  45.8221490  88.1381550  32.2131050  45.4003520  88.3673440
  31.0358120  47.4506910  92.8727760  31.4915070  46.6696290  93.1866380
  31.3750640  48.1613730  93.4168940  23.5579440  32.3529130  95.0679070
  23.1147590  33.1338670  94.7363590  24.1164430  32.6759020  95.7750010
  26.6738260  31.9739830  89.9484900  26.0492440  31.9699700  90.6738210
  26.5868380  31.1070790  89.5520870  23.3493660  37.4762700  92.7960320
  23.1234580  37.2599870  93.7006940  22.5686190  37.9091160  92.4506290
  30.5791420  37.4826070  91.3950970  29.9800310  38.2061870  91.2114590
  31.1271030  37.4202850  90.6127420  29.1856290  36.1189610  93.4254250
  29.5785860  36.4361810  92.6122940  29.5473140  35.2401490  93.5398770
  18.4090690  36.6510530  86.8587170  18.3265360  37.5941290  87.0002160
  18.0573750  36.5085440  85.9799520  26.2088820  35.3849560  95.9257520
  26.2124880  34.9439510  95.0762060  27.1039940  35.7066890  96.0329340
  22.0591200  35.2676050  94.8851730  21.7191250  35.7451280  95.6418780
  21.2968520  34.8141170  94.5252830  26.2708970  36.3861640  88.9164280
  26.3921790  36.3448120  89.8650100  25.8857480  37.2485790  88.7611010
  25.2830470  38.6962780  88.3147580  24.7147370  38.2481030  87.6883490
  25.9919470  39.0555560  87.7812730  19.3737280  34.1895030  93.8016400
  19.0884200  33.8250700  94.6395020  19.3116140  33.4575490  93.1879540
  22.8277950  42.6920970  90.5873990  22.0540210  42.1518590  90.4272710
  23.5572580  42.1727580  90.2491750  29.0475870  33.0824290  90.5229770
  28.2340480  32.5837460  90.4475080  28.8537820  33.9222540  90.1066120
  31.7624260  37.4543940  88.8191930  32.6503880  37.7661170  88.6443270
  31.7329350  36.5816190  88.4272510  22.8715350  42.3601350  94.2252800
  23.3894020  41.5569610  94.1709690  22.4199370  42.2980490  95.0669630
  27.7584850  43.6267630  89.4980100  28.1000550  44.3709860  89.0023420
  26.9297560  43.9398750  89.8604930  34.0338530  38.7655780  88.2871790
  33.9502250  39.1970000  87.4368230  34.7532720  39.2254130  88.7198610
  35.0625780  45.6198040  91.0153920  34.4201940  44.9653660  91.2897640
  34.6756440  46.0253130  90.2394590  30.6412260  42.9483470  94.8625610
  30.9936080  42.3511600  94.2026980  29.7574590  42.6227700  95.0333860
  26.7275540  43.7081160  92.2696020  27.4146670  44.2550370  92.6503610
  25.9407960  44.2521890  92.3045630  18.8667940  39.3253980  87.7613100
  19.7362790  39.6078780  88.0449020  18.3758260  40.1389850  87.6461910
  26.0302750  40.7127190  91.8821380  26.4865530  41.5232440  92.1081570
  25.6790960  40.3950330  92.7139870  21.9314530  31.0564840  92.3543900
  21.8029160  31.0482740  93.3028820  21.1076550  31.3947930  92.0034910
  33.4523160  44.5114500  87.5530270  33.2260740  43.7944940  88.1454910
  33.0619360  44.2626940  86.7152020  19.2339190  48.5381360  88.3274730
  19.5936830  49.1370700  87.6732000  19.0931530  49.0841250  89.1009760
  33.0339410  42.4286440  89.2144430  32.7461110  42.8899130  90.0022310
  33.8291580  41.9684210  89.4828650  25.2507810  45.9212560  89.1448400
  25.2417910  46.6542250  88.5292910  24.3306170  45.6744140  89.2375360
  20.8514450  41.1427450  89.8895160  20.2442400  41.8826350  89.8990460
  21.3263800  41.2326810  89.0633360  33.7909270  34.2635210  90.3739610
  33.1622430  34.3680880  89.6597840  33.2961190  34.4831990  91.1633490
  28.2367410  45.9840800  87.8073590  28.3379390  45.7804790  86.8775570
  27.3369150  45.7299080  88.0121370  25.7593300  36.5421160  91.7897490
  25.0509450  37.0107500  92.2311100  26.0437780  35.8843170  92.4242680
  29.7908730  33.2671820  93.2293280  29.6676510  33.2857950  92.2802790
  30.7393290  33.3150760  93.3491680  26.8785520  48.5027120  92.5021260
  27.1327020  48.4648510  91.5800630  25.9298000  48.3760450  92.4949510
  23.9628320  34.8506240  89.1648200  24.8118850  35.2876390  89.0988390
  23.5959590  35.1626500  89.9920260  32.8838100  39.4219000  94.0779770
  31.9428240  39.4369230  94.2527460  33.1982170  38.6354960  94.5240070
  22.8619740  41.1038600  87.6383730  23.6283010  40.9919960  88.2009160
  22.9394430  40.4076570  86.9860500  21.5566500  38.5363670  88.3216620
  21.6370090  37.5891180  88.4334020  22.4486250  38.8670550  88.4277280
  22.3581210  48.6859060  95.4251160  23.0943690  48.1374520  95.6959730
  22.7422130  49.5515070  95.2857150  19.2426690  44.7532630  91.2992670
  18.3166470  44.9953770  91.2898080  19.7083120  45.5806890  91.1777420
  25.4683520  47.8589370  87.2476730  26.2612130  48.1478200  86.7958520
  24.9487870  47.4281540  86.5689210  34.5213690  47.0859500  88.6713470
  34.2355200  46.6724640  87.8567650  34.3233240  48.0147210  88.5513990
  25.9860920  43.0792780  87.1119080  25.8811560  42.4645130  87.8380460
  25.8185140  42.5558670  86.3282090  29.2263650  42.1412810  87.7161070
  28.6773750  42.5882110  88.3603810  29.8482910  41.6362060  88.2398740
  24.8938770  41.1003730  89.6126370  25.3155190  40.9343600  90.4557760
  25.0189610  40.2903960  89.1181510  27.4066410  40.1241340  86.8603470
  27.9272070  39.4090360  86.4944620  28.0534810  40.7627210  87.1603980
  23.7897670  37.1736960  86.5584530  23.5886730  36.3104320  86.9197870
  23.6189720  37.0870320  85.6206130  31.2685980  31.9845190  89.0871410
  31.5488270  31.1413090  89.4430830  30.4951710  32.2168300  89.6010160
  22.5880470  34.2737580  86.5462410  22.8906370  34.2805010  85.6381560
  23.3275060  33.9235440  87.0430070  25.8065400  33.2172200  87.5318610
  25.4587400  32.5396190  86.9521060  26.0078170  32.7561710  88.3462000
  27.9714440  48.2052950  89.1505210  28.8665230  48.5437920  89.1723970
  28.0032070  47.4832360  88.5229490  21.6110600  43.5780000  87.3792210
  22.0485470  44.1209670  88.0349790  22.0958330  42.7526950  87.3888550
  18.8256400  46.3669030  94.8312470  19.1559410  45.4990090  94.5991110
  19.2547400  46.5727550  95.6617430  23.4218320  44.6978040  92.4914440
  23.1213860  44.5743010  93.3918350  23.3155810  43.8386630  92.0830170
  36.1910240  44.4774440  87.1941120  35.3603200  44.5451090  87.6648350
  36.3682070  45.3678560  86.8907980  35.6466700  41.2221920  89.6975320
  36.4085610  41.7918570  89.8035010  35.6621070  40.6549120  90.4683630
  19.1471040  39.7459850  93.9282980  18.4919880  39.4771490  93.2842680
  19.9848990  39.6364330  93.4784960  36.6526670  42.0772020  94.5417250
  37.0235500  41.2939340  94.1353220  37.2928600  42.7661120  94.3634550
  35.6985870  41.5156290  86.8547840  35.9734710  42.4235170  86.7267060
  35.5096610  41.4518820  87.7909830  32.0961480  34.5401140  88.1501470
  32.5146360  34.3532120  87.3098130  31.7897540  33.6880190  88.4604400
  35.5951210  39.4525280  91.8477270  35.2194810  38.6853210  91.4158560
  34.8654330  39.8347980  92.3352200  18.3609120  36.9558780  89.8708310
  17.4573200  37.2188980  89.6959970  18.8449740  37.2269950  89.0908270
  34.8702170  37.6782770  95.1484510  35.3939650  37.1845420  94.5174680
  35.4561590  37.8133130  95.8932080  20.9036330  36.0124320  87.7802690
  21.6128030  35.5907540  87.2949970  20.1876270  36.0799550  87.1486040
  20.5510490  32.0663650  86.8205340  21.2738620  32.6072590  87.1386560
  20.8235010  31.7927070  85.9446880  34.3602140  36.9356120  91.0876920
  34.8561260  36.7026990  91.8725800  34.1618210  36.0967960  90.6714560
  35.7889300  35.5717070  93.6214600  35.6788580  35.4173110  94.5596870
  36.5496890  35.0438010  93.3790010  36.6779570  33.4024990  86.8620740
  37.6028880  33.2706170  86.6539030  36.6555360  33.4817810  87.8157190
  36.7518060  34.1735650  89.4877450  35.9569560  34.1080770  90.0170360
  36.9561340  35.1086290  89.4762800  33.6936480  48.2127200  93.4815840
  34.2895550  47.8911770  92.8050260  33.9514630  47.7399020  94.2729110
  33.1837990  32.5032530  95.9376280  33.6246080  32.4477630  95.0897880
  32.9145580  33.4190540  96.0086460  35.0476560  32.1347770  93.9485100
  34.9864960  31.1908990  93.8016120  35.8268590  32.2427860  94.4938560
  19.3529310  48.2740130  92.9109050  19.1851350  47.6410810  93.6090940
  18.4863820  48.4799530  92.5603240  19.9757330  32.1056910  90.4140910
  20.7336690  32.2185790  89.8404940  19.5134500  32.9426110  90.3684340
  26.5171140  34.2196180  93.4043220  25.7045650  33.8453070  93.0639100
  27.0212780  33.4641260  93.7064410  31.0196120  30.8838630  94.6426290
  31.6225490  31.4558840  95.1174810  30.2789110  31.4478070  94.4200190
  34.1630720  31.2860190  89.9166570  34.3581350  32.1843640  90.1834000
  33.3760590  31.0547270  90.4099520  20.9592010  46.9673360  90.3559190
  20.4339630  47.3481390  89.6521150  20.8836590  47.5924130  91.0768900
  22.3482480  32.6320960  88.9542880  22.8775240  31.8450760  88.8250830
  22.9810800  33.3112150  89.1878410  24.5420320  32.3696100  92.0088270
  23.9123060  31.6683410  92.1758400  24.0025460  33.1300230  91.7921430
  35.7157330  48.5260900  91.6773130  35.8909520  47.8398640  91.0334050
  35.0178900  49.0507950  91.2849800  23.5584980  48.9155740  89.2308440
  24.2903800  48.6315020  88.6832330  23.8178650  48.6769020  90.1207820
  22.7199770  45.0320470  89.2354770  22.0908650  45.5005570  89.7840600
  22.8347600  44.1869690  89.6700960  30.1749490  39.0826130  75.3855970
  30.0943540  38.1680740  75.1147680  29.7613910  39.5793200  74.6795680
  28.3067530  40.8605150  77.2665240  27.5309630  40.3805590  77.5563810
  28.9580460  40.1810800  77.0921400  22.3233360  41.1724960  78.1441000
  21.4918240  40.9173670  78.5437510  22.9314340  41.2435730  78.8798920
  32.3274960  45.2665340  76.0464370  31.8656490  44.4952580  76.3751540
  33.1400510  45.2931410  76.5516820  22.3034620  45.2065050  78.3399020
  22.6062660  44.3162790  78.1609240  23.0478210  45.7635270  78.1121270
  20.7325310  36.1326850  71.9283390  19.8442010  36.4742820  71.8263270
  21.0166500  35.9327170  71.0364220  18.6958320  38.7332500  77.8123090
  19.2674430  37.9654700  77.8126730  18.6959860  39.0321260  76.9029700
  28.5538270  47.5523350  75.6668360  27.9349710  48.0080850  75.0962800
  29.4090050  47.7074810  75.2658060  27.7476520  43.5362340  77.2735400
  27.6784800  42.5952280  77.1124530  28.5096380  43.6263750  77.8457970
  19.9383190  34.1416860  79.5992020  19.7586030  33.2442610  79.8794780
  19.5363270  34.6888730  80.2738970  28.7781690  36.3432720  77.5004330
  29.1546510  35.4704600  77.3878000  28.6801200  36.6791420  76.6094770
  22.9086700  34.7158350  72.9621770  23.0153450  35.6162080  73.2690530
  21.9979060  34.6676320  72.6716420  32.5605810  33.8383160  74.4332670
  33.3815430  33.3479730  74.4758150  32.5939890  34.4280820  75.1864510
  20.5569860  36.6377360  78.2074360  21.2379970  36.9015730  78.8261760
  20.2417910  35.7978230  78.5412370  24.7494430  37.6844720  77.2946950
  25.2572650  38.1825690  77.9351970  25.2807670  36.9079920  77.1186310
  36.8505360  35.8549910  80.9976300  36.1457530  36.2431620  80.4791410
  37.1163280  36.5500200  81.5997230  23.0330530  32.3243280  81.5610370
  23.0348970  32.8415670  80.7556270  22.2034840  31.8473460  81.5380300
  29.4201620  42.4362590  73.0600270  28.8018890  42.9012040  72.4962990
  29.9324870  43.1290070  73.4769780  24.2833380  41.9638460  79.7383870
  23.9502760  42.5907380  80.3804940  24.4600060  42.4900340  78.9585540
  32.7967290  35.7783540  77.2060210  32.0922860  36.0668430  77.7863320
  33.1579450  36.5883650  76.8459770  22.7145860  34.0353240  79.5680820
  23.0562670  34.8795290  79.2734690  21.7761670  34.1836980  79.6846160
  23.4952480  43.9319260  81.5533050  24.1126480  44.6070340  81.2717500
  22.6345600  44.3407240  81.4620550  18.7884820  43.1219120  70.4339900
  18.4112800  43.6106220  69.7024800  19.0457890  43.7944400  71.0646430
  34.4130070  45.3958670  79.4687690  33.7293590  46.0657780  79.4604360
  34.9524360  45.5939320  78.7032550  35.8654210  35.2238330  77.5969420
  34.9179120  35.2577310  77.7284850  36.1904200  36.0377280  77.9818780
  26.3973750  31.5235510  75.8925410  26.7048730  30.9682400  75.1760910
  25.4674450  31.6579970  75.7098400  31.9488810  47.2402800  78.1832870
  31.9615970  46.8365090  77.3155130  31.3964030  48.0150090  78.0794300
  33.2434230  43.9619020  73.2723040  33.1330560  43.0193350  73.3972460
  33.2402480  44.3234660  74.1585800  31.3474250  42.1432640  79.5115480
  31.7643040  41.9292750  78.6768940  32.0714070  42.4005430  80.0824100
  28.7854510  39.5884340  72.6285530  27.8583790  39.5221720  72.8574000
  28.9379330  40.5264470  72.5140770  28.7723590  35.8601340  69.6252690
  27.8327260  36.0215300  69.7105150  29.0906850  36.5787020  69.0788680
  35.2936350  40.5419860  79.6031720  34.4654980  40.6112950  79.1281850
  35.8886830  41.1274170  79.1347550  32.8151800  41.1504640  73.1320780
  32.1964220  40.8124190  72.4847080  32.7976250  40.5064400  73.8399970
  32.2578360  37.3289180  80.5486590  31.8449540  38.1542890  80.8026580
  31.5254310  36.7434220  80.3562950  24.3911150  40.1149080  75.4105260
  23.9868150  39.4026330  74.9151160  24.4774270  39.7702320  76.2993300
  24.8592850  43.8016640  77.5744470  24.5621140  43.1962110  76.8952250
  25.8092670  43.8393950  77.4633830  23.1039770  36.8892290  79.1904300
  23.6554360  36.9987630  78.4157550  23.6183280  37.2629890  79.9059530
  32.9478460  47.3748510  81.2367570  32.4709020  48.1820700  81.0440180
  32.2640250  46.7226840  81.3893780  23.9511280  43.5398330  84.2252270
  23.0539810  43.7638300  84.4725670  23.9764150  43.6633270  83.2763670
  30.9916500  40.3891450  70.1393530  31.4309780  39.5513880  69.9931350
  31.7044920  41.0220850  70.2257670  22.7782500  40.4111650  82.8009640
  22.6390270  41.2834450  83.1697040  21.8963860  40.0684460  82.6557580
  29.1011880  45.3287520  74.1074770  29.5407790  46.0711850  73.6930160
  29.0398770  45.5714090  75.0313730  24.5762850  46.3533350  85.0094790
  24.5478280  46.7576300  84.1423220  24.4127820  45.4243710  84.8466390
  34.5733640  31.6434260  68.4534570  34.2606300  31.7361090  69.3533640
  35.3346110  32.2215290  68.4032000  21.0915780  39.0094060  72.9111910
  20.9713380  39.7356150  72.2993180  20.7816670  38.2396970  72.4339820
  36.5277670  47.1360450  86.3058960  37.0037390  47.6143340  86.9848040
  37.1484830  47.0677940  85.5804460  18.7301150  42.1809200  78.7180550
  18.8081570  42.3157970  77.7736270  19.3442830  41.4725090  78.9108670
  19.9748780  43.8809390  75.1286730  19.5676860  44.0223980  74.2740330
  20.8661790  43.5969550  74.9257940  35.9310920  44.3273300  83.4658970
  36.0573980  44.0885180  82.5476150  35.9732300  43.4957840  83.9381050
  29.7927660  48.0301300  82.0353780  30.3072330  47.9409310  82.8376210
  28.9496740  48.3761000  82.3281690  31.7682060  48.3156640  71.4637780
  31.6083200  48.0259580  72.3619610  31.6028770  47.5396770  70.9283010
  24.2470440  48.0955170  73.2409400  24.0712920  47.1790710  73.0277200
  23.3926180  48.4542460  73.4807200  31.4708190  45.8244200  70.0235780
  30.7773350  45.8221490  69.3638060  32.2131050  45.4003520  69.5929950
  31.0358120  47.4506910  74.0984270  31.4915070  46.6696290  74.4122890
  31.3750640  48.1613730  74.6425450  35.7834930  36.3805760  84.4308710
  35.1679200  36.8885430  83.9024170  35.4631350  35.4804090  84.3734650
  18.7860670  43.2223370  81.2575010  18.9491710  42.7528730  80.4394380
  19.2513120  42.7146930  81.9223850  23.5579440  32.3529130  76.2935580
  23.1147590  33.1338670  75.9620100  24.1164430  32.6759020  77.0006520
  27.8449250  35.2197650  81.8970900  27.3828620  35.4280670  82.7090840
  27.4427360  34.4057000  81.5941570  32.8453760  36.4406600  83.0267560
  31.9947350  36.1412350  83.3476630  32.6855550  36.6848610  82.1151380
  29.9403470  37.9408350  85.1266350  30.2656880  37.1072100  84.7868580
  30.7283800  38.4636870  85.2744680  26.6738260  31.9739830  71.1741410
  26.0492440  31.9699700  71.8994720  26.5868380  31.1070790  70.7777380
  25.5955340  32.8976460  78.1525180  25.8927670  33.8039290  78.0717200
  26.1440900  32.4095240  77.5384750  23.3493660  37.4762700  74.0216830
  23.1234580  37.2599870  74.9263450  22.5686190  37.9091160  73.6762800
  30.5791420  37.4826070  72.6207480  29.9800310  38.2061870  72.4371100
  31.1271030  37.4202850  71.8383930  25.7892870  38.3748280  84.6877100
  25.6936470  37.4343010  84.5377500  26.6324850  38.5963350  84.2925170
  29.1856290  36.1189610  74.6510760  29.5785860  36.4361810  73.8379450
  29.5473140  35.2401490  74.7655280  20.9203410  34.7861950  82.8410880
  20.5266800  35.6337160  83.0483660  20.2321810  34.1488320  83.0319520
  27.4948460  34.8696920  85.9107620  26.8046780  34.6769120  86.5453710
  28.2380760  35.1531560  86.4431920  18.2220460  32.7090410  76.8740960
  17.9333510  33.2793270  77.5865940  18.9666220  32.2294860  77.2372190
  18.4090690  36.6510530  68.0843680  18.3265360  37.5941290  68.2258670
  18.0573750  36.5085440  67.2056030  29.7711430  38.7095360  78.7461540
  29.0392550  39.2182170  79.0951640  29.3735770  37.8925340  78.4450320
  26.2088820  35.3849560  77.1514030  26.2124880  34.9439510  76.3018570
  27.1039940  35.7066890  77.2585850  22.0591200  35.2676050  76.1108240
  21.7191250  35.7451280  76.8675290  21.2968520  34.8141170  75.7509340
  26.2708970  36.3861640  70.1420790  26.3921790  36.3448120  71.0906610
  25.8857480  37.2485790  69.9867520  30.2337340  34.1629040  78.1584480
  30.2510080  34.6137690  79.0026330  29.9852920  33.2634680  78.3717920
  25.2830470  38.6962780  69.5404090  24.7147370  38.2481030  68.9140000
  25.9919470  39.0555560  69.0069240  33.6608090  31.5761220  83.9970860
  33.9853860  30.8450880  84.5228840  33.6964600  31.2574860  83.0951850
  20.3599650  42.5974800  83.4170820  19.9754440  41.9568470  84.0153780
  20.6711840  43.3010920  83.9865550  26.5096790  39.4451340  78.8979440
  26.8766920  38.9709910  79.6440780  26.3201850  40.3192910  79.2387780
  19.3737280  34.1895030  75.0272910  19.0884200  33.8250700  75.8651530
  19.3116140  33.4575490  74.4136050  24.2996160  38.4859980  81.2163650
  23.9953230  39.3651960  81.4414010  25.2542620  38.5459770  81.2521090
  22.8277950  42.6920970  71.8130500  22.0540210  42.1518590  71.6529220
  23.5572580  42.1727580  71.4748260  33.5865930  41.6886330  77.6056890
  34.3065050  42.1841620  77.2153000  33.3847750  41.0104220  76.9610760
  29.0475870  33.0824290  71.7486280  28.2340480  32.5837460  71.6731590
  28.8537820  33.9222540  71.3322630  28.9684730  41.7595390  83.4925890
  28.9022040  40.8391060  83.2383480  28.3389870  41.8570830  84.2070530
  31.7624260  37.4543940  70.0448440  32.6503880  37.7661170  69.8699780
  31.7329350  36.5816190  69.6529020  22.8715350  42.3601350  75.4509310
  23.3894020  41.5569610  75.3966200  22.4199370  42.2980490  76.2926140
  27.7584850  43.6267630  70.7236610  28.1000550  44.3709860  70.2279930
  26.9297560  43.9398750  71.0861440  20.3559890  39.3262720  82.3635010
  19.9974830  39.9916570  82.9508350  20.0614450  38.4946270  82.7347630
  23.5573010  39.7846960  85.2474560  23.2573150  39.9304140  84.3502380
  24.3284250  39.2252250  85.1547950  28.9001460  44.5815960  83.2429690
  28.9146000  43.6496920  83.0248600  28.1926560  44.6675720  83.8819460
  34.0338530  38.7655780  69.5128300  33.9502250  39.1970000  68.6624740
  34.7532720  39.2254130  69.9455120  35.1112670  41.2223300  82.5898270
  34.3860860  41.8152080  82.3927660  35.6388130  41.2146840  81.7911640
  35.0625780  45.6198040  72.2410430  34.4201940  44.9653660  72.5154150
  34.6756440  46.0253130  71.4651100  30.6412260  42.9483470  76.0882120
  30.9936080  42.3511600  75.4283490  29.7574590  42.6227700  76.2590370
  26.7275540  43.7081160  73.4952530  27.4146670  44.2550370  73.8760120
  25.9407960  44.2521890  73.5302140  18.8667940  39.3253980  68.9869610
  19.7362790  39.6078780  69.2705530  18.3758260  40.1389850  68.8718420
  26.0302750  40.7127190  73.1077890  26.4865530  41.5232440  73.3338080
  25.6790960  40.3950330  73.9396380  28.3335360  46.2233530  80.3370190
  28.9777580  46.4292910  81.0143610  28.6964800  45.4621930  79.8841040
  21.9314530  31.0564840  73.5800410  21.8029160  31.0482740  74.5285330
  21.1076550  31.3947930  73.2291420  29.6067440  44.2265880  79.0547640
  30.2489670  43.5259040  79.1679810  30.1316790  45.0064320  78.8744530
  33.4523160  44.5114500  68.7786780  33.2260740  43.7944940  69.3711420
  33.0619360  44.2626940  67.9408530  31.3805060  45.0260780  82.2583700
  31.7161300  45.6127470  82.9361620  30.4605400  44.8953490  82.4881490
  19.2339190  48.5381360  69.5531240  19.5936830  49.1370700  68.8988510
  19.0931530  49.0841250  70.3266270  18.9308460  32.8155960  83.0407110
  18.2166980  33.0152880  83.6459720  19.3503500  32.0395530  83.4121910
  33.0339410  42.4286440  70.4400940  32.7461110  42.8899130  71.2278820
  33.8291580  41.9684210  70.7085160  19.2181050  46.8036220  84.0273640
  19.3272170  45.8630960  83.8869030  18.5661610  47.0690970  83.3787370
  27.2093640  45.0752110  85.4271760  26.8890510  44.3561350  85.9717450
  26.5352000  45.7507180  85.5007820  25.2507810  45.9212560  70.3704910
  25.2417910  46.6542250  69.7549420  24.3306170  45.6744140  70.4631870
  20.8514450  41.1427450  71.1151670  20.2442400  41.8826350  71.1246970
  21.3263800  41.2326810  70.2889870  30.4247240  35.3078270  80.7908560
  30.7928060  34.4873480  81.1188130  29.5645440  35.3680160  81.2064210
  33.7909270  34.2635210  71.5996120  33.1622430  34.3680880  70.8854350
  33.2961190  34.4831990  72.3890000  28.2367410  45.9840800  69.0330100
  28.3379390  45.7804790  68.1032080  27.3369150  45.7299080  69.2377880
  25.7593300  36.5421160  73.0154000  25.0509450  37.0107500  73.4567610
  26.0437780  35.8843170  73.6499190  27.3849230  37.9617860  81.0146530
  27.8834480  38.4363680  81.6798380  27.5272180  37.0381380  81.2216560
  29.7908730  33.2671820  74.4549790  29.6676510  33.2857950  73.5059300
  30.7393290  33.3150760  74.5748190  26.8785520  48.5027120  73.7277770
  27.1327020  48.4648510  72.8057140  25.9298000  48.3760450  73.7206020
  23.9628320  34.8506240  70.3904710  24.8118850  35.2876390  70.3244900
  23.5959590  35.1626500  71.2176770  34.5916090  34.1785820  81.8574920
  34.0889690  34.9191220  82.1968730  35.4072750  34.5669820  81.5411710
  32.8838100  39.4219000  75.3036280  31.9428240  39.4369230  75.4783970
  33.1982170  38.6354960  75.7496580  22.8619740  41.1038600  68.8640240
  23.6283010  40.9919960  69.4265670  22.9394430  40.4076570  68.2117010
  21.5566500  38.5363670  69.5473130  21.6370090  37.5891180  69.6590530
  22.4486250  38.8670550  69.6533790  34.8863680  46.5927850  76.9790540
  35.0111100  47.4159020  77.4514350  35.7529240  46.3818580  76.6314690
  22.3581210  48.6859060  76.6507670  23.0943690  48.1374520  76.9216240
  22.7422130  49.5515070  76.5113660  19.2426690  44.7532630  72.5249180
  18.3166470  44.9953770  72.5154590  19.7083120  45.5806890  72.4033930
  21.3639490  47.8705130  85.8393250  22.1652220  48.1917180  86.2528650
  20.8491310  47.5100710  86.5613160  25.4683520  47.8589370  68.4733240
  26.2612130  48.1478200  68.0215030  24.9487870  47.4281540  67.7945720
  30.2004120  43.9785000  85.7868660  29.5942280  44.0016600  85.0464410
  29.8958230  43.2468040  86.3235910  31.6304490  47.7065290  84.3978070
  32.5826240  47.6223310  84.3478310  31.4832710  48.3707000  85.0711860
  34.5213690  47.0859500  69.8969980  34.2355200  46.6724640  69.0824160
  34.3233240  48.0147210  69.7770500  19.0837300  40.3578590  84.7829300
  19.5876320  39.7785870  85.3545530  18.3444720  40.6418820  85.3205670
  25.9860920  43.0792780  68.3375590  25.8811560  42.4645130  69.0636970
  25.8185140  42.5558670  67.5538600  26.1375240  41.7649580  84.3164820
  25.3720910  42.3334580  84.2319490  26.3191200  41.4725790  83.4233050
  29.2263650  42.1412810  68.9417580  28.6773750  42.5882110  69.5860320
  29.8482910  41.6362060  69.4655250  33.2798590  43.4954910  84.8739840
  34.0208060  43.8330670  84.3707300  32.5171270  43.6646970  84.3209610
  21.1160380  38.5008180  85.6779370  21.1565720  38.2022050  86.5864600
  21.9705880  38.9015790  85.5186890  24.8938770  41.1003730  70.8382880
  25.3155190  40.9343600  71.6814270  25.0189610  40.2903960  70.3438020
  23.0566190  37.0800280  83.6453860  22.5262650  36.5891230  83.0177200
  23.7254260  37.5084480  83.1111790  27.4066410  40.1241340  68.0859980
  27.9272070  39.4090360  67.7201130  28.0534810  40.7627210  68.3860490
  31.9544250  41.5469740  83.4095050  32.3685270  41.7014820  84.2585470
  31.0195250  41.6724960  83.5720830  32.4266420  38.8865900  85.4134200
  33.0087190  38.1318220  85.3254680  32.6028190  39.4173340  84.6365680
  23.5438490  34.0462650  83.7251150  23.4495360  33.4283400  83.0002020
  22.9635880  34.7728940  83.4981060  26.3099930  32.6035890  80.7578540
  25.8617230  32.6260150  79.9124090  25.6765130  32.2054910  81.3548840
  26.7159480  41.4990220  81.3790980  27.1347590  42.3422950  81.2067220
  25.7968110  41.6362260  81.1497760  29.0523380  39.2306400  82.7628820
  29.1719590  38.6347540  83.5023660  29.9117380  39.2676090  82.3430120
  31.3911280  39.7843590  81.3391330  30.8646500  40.3086210  80.7356470
  31.7342620  40.4170980  81.9701060  23.7897670  37.1736960  67.7841040
  23.5886730  36.3104320  68.1454380  23.6189720  37.0870320  66.8462640
  24.5666900  47.8043230  82.4948710  24.0287990  48.5289290  82.1757410
  24.8200860  47.3273570  81.7046050  25.8192150  35.7727750  84.0204640
  26.4091840  35.4643600  84.7082460  25.0012390  35.3007500  84.1764540
  30.6385580  35.3893560  84.2537660  29.9501100  34.7275100  84.1887650
  31.3591600  34.9431830  84.6986120  31.2685980  31.9845190  70.3127920
  31.5488270  31.1413090  70.6687340  30.4951710  32.2168300  70.8266670
  22.5880470  34.2737580  67.7718920  22.8906370  34.2805010  66.8638070
  23.3275060  33.9235440  68.2686580  27.4229110  49.0394440  82.7535360
  27.3487810  49.9429580  83.0607730  26.5207950  48.7206340  82.7257430
  25.8065400  33.2172200  68.7575120  25.4587400  32.5396190  68.1777570
  26.0078170  32.7561710  69.5718510  27.9714440  48.2052950  70.3761720
  28.8665230  48.5437920  70.3980480  28.0032070  47.4832360  69.7486000
  21.6110600  43.5780000  68.6048720  22.0485470  44.1209670  69.2606300
  22.0958330  42.7526950  68.6145060  18.8256400  46.3669030  76.0568980
  19.1559410  45.4990090  75.8247620  19.2547400  46.5727550  76.8873940
  23.4218320  44.6978040  73.7170950  23.1213860  44.5743010  74.6174860
  23.3155810  43.8386630  73.3086680  19.3146610  47.2339620  78.7950610
  18.8777600  47.4140420  79.6274760  19.8824290  47.9914240  78.6532330
  34.9508790  46.7356620  83.0827920  34.3510780  46.7949180  82.3391840
  35.0802690  45.7961600  83.2124770  36.1910240  44.4774440  68.4197630
  35.3603200  44.5451090  68.8904860  36.3682070  45.3678560  68.1164490
  35.6466700  41.2221920  70.9231830  36.4085610  41.7918570  71.0291520
  35.6621070  40.6549120  71.6940140  19.1471040  39.7459850  75.1539490
  18.4919880  39.4771490  74.5099190  19.9848990  39.6364330  74.7041470
  36.6526670  42.0772020  75.7673760  37.0235500  41.2939340  75.3609730
  37.2928600  42.7661120  75.5891060  33.6360430  43.4608600  81.1804080
  32.8220270  43.8905760  81.4429870  34.0434630  44.0727010  80.5673130
  35.6985870  41.5156290  68.0804350  35.9734710  42.4235170  67.9523570
  35.5096610  41.4518820  69.0166340  32.0961480  34.5401140  69.3757980
  32.5146360  34.3532120  68.5354640  31.7897540  33.6880190  69.6860910
  35.5951210  39.4525280  73.0733780  35.2194810  38.6853210  72.6415070
  34.8654330  39.8347980  73.5608710  20.1846970  40.1312420  79.6942830
  20.5520010  40.0439820  80.5738850  19.6157790  39.3678970  79.5949690
  34.9850830  38.5996800  82.7073300  34.7536920  38.3709550  81.8071250
  35.2455380  39.5196350  82.6618190  19.7362970  37.0421510  83.6001250
  18.8419020  37.0088270  83.9394960  20.2760520  37.2408300  84.3652500
  33.4238900  33.8253230  85.4853000  34.3009080  33.8336630  85.8687000
  33.4359740  33.0884070  84.8745350  18.3609120  36.9558780  71.0964820
  17.4573200  37.2188980  70.9216480  18.8449740  37.2269950  70.3164780
  34.8702170  37.6782770  76.3741020  35.3939650  37.1845420  75.7431190
  35.4561590  37.8133130  77.1188590  35.0491890  37.7622640  79.8960570
  34.0994600  37.7286180  80.0105560  35.2304900  38.6722750  79.6610340
  20.9036330  36.0124320  69.0059200  21.6128030  35.5907540  68.5206480
  20.1876270  36.0799550  68.3742550  20.5510490  32.0663650  68.0461850
  21.2738620  32.6072590  68.3643070  20.8235010  31.7927070  67.1703390
  34.3602140  36.9356120  72.3133430  34.8561260  36.7026990  73.0982310
  34.1618210  36.0967960  71.8971070  20.2402680  31.3169840  77.9484470
  20.8878870  30.7667220  77.5079630  20.6604520  31.5712990  78.7700280
  35.7889300  35.5717070  74.8471110  35.6788580  35.4173110  75.7853380
  36.5496890  35.0438010  74.6046520  34.1355020  31.5111200  81.3054110
  34.7727240  32.1245340  81.6713300  34.2829910  31.5471860  80.3603340
  36.6779570  33.4024990  68.0877250  37.6028880  33.2706170  67.8795540
  36.6555360  33.4817810  69.0413700  36.7518060  34.1735650  70.7133960
  35.9569560  34.1080770  71.2426870  36.9561340  35.1086290  70.7019310
  33.6936480  48.2127200  74.7072350  34.2895550  47.8911770  74.0306770
  33.9514630  47.7399020  75.4985620  19.9934680  31.4725510  80.6909790
  19.6449500  31.9289330  81.4567970  19.6622380  30.5782640  80.7732220
  21.5999050  44.6445110  84.8562980  21.5568680  44.2738020  85.7377440
  21.7310060  45.5822680  84.9964800  25.3005080  46.2004700  80.4572700
  25.0596440  46.4679260  79.5703220  26.2407720  46.3710430  80.5123560
  27.5059500  32.6637390  84.2129210  27.4448390  33.2559220  84.9624620
  28.4459880  32.5563350  84.0679470  30.1434060  32.3207450  83.8521500
  30.7574470  32.6386740  83.1902580  30.6883620  31.8356040  84.4717360
  36.5609240  48.2199080  81.2583340  36.0667520  48.6167950  80.5410470
  35.9522530  47.5948290  81.6520620  20.6655320  31.0001710  83.9660560
  21.2138310  30.8189760  83.2026670  20.7310630  30.2095820  84.5016870
  21.4387080  47.5907360  81.9760760  20.8447400  47.4592060  82.7150800
  21.4310920  46.7545500  81.5102860  30.8842100  30.8839590  80.1790790
  30.0101940  31.2174700  79.9763720  30.7752850  30.4112770  81.0042660
  31.7914080  33.0910460  81.5632510  31.4627440  32.2762220  81.1834240
  32.7396380  33.0480270  81.4398200  34.2448690  48.8622500  78.5370080
  33.7851660  49.6138310  78.1628100  33.6161150  48.1428970  78.4784880
  21.0699310  44.9565740  80.9268800  20.3433370  44.3371030  80.8594750
  21.1308460  45.3506350  80.0566880  24.6744410  47.1710740  77.7118210
  25.1909430  46.5598100  77.1866470  25.3241790  47.6739520  78.2029220
  27.4139910  48.0619230  78.5387190  27.7017720  47.8073530  77.6620200
  27.9263130  47.5096590  79.1292760  28.6316920  31.8009430  79.1183700
  27.8488710  32.2754930  79.3980460  28.3379850  30.8964260  79.0096880
  33.1837990  32.5032530  77.1632790  33.6246080  32.4477630  76.3154390
  32.9145580  33.4190540  77.2342970  35.0476560  32.1347770  75.1741610
  34.9864960  31.1908990  75.0272630  35.8268590  32.2427860  75.7195070
  19.3529310  48.2740130  74.1365560  19.1851350  47.6410810  74.8347450
  18.4863820  48.4799530  73.7859750  19.9757330  32.1056910  71.6397420
  20.7336690  32.2185790  71.0661450  19.5134500  32.9426110  71.5940850
  26.5171140  34.2196180  74.6299730  25.7045650  33.8453070  74.2895610
  27.0212780  33.4641260  74.9320920  31.0196120  30.8838630  75.8682800
  31.6225490  31.4558840  76.3431320  30.2789110  31.4478070  75.6456700
  34.1630720  31.2860190  71.1423080  34.3581350  32.1843640  71.4090510
  33.3760590  31.0547270  71.6356030  20.9592010  46.9673360  71.5815700
  20.4339630  47.3481390  70.8777660  20.8836590  47.5924130  72.3025410
  22.3482480  32.6320960  70.1799390  22.8775240  31.8450760  70.0507340
  22.9810800  33.3112150  70.4134920  24.5420320  32.3696100  73.2344780
  23.9123060  31.6683410  73.4014910  24.0025460  33.1300230  73.0177940
  27.4812270  48.9835330  85.9055390  28.4079580  48.7479600  85.9491350
  27.4662700  49.8107330  85.4241420  35.7157330  48.5260900  72.9029640
  35.8909520  47.8398640  72.2590560  35.0178900  49.0507950  72.5106310
  24.6675880  31.6480080  85.6697270  24.3860150  32.1513680  84.9058090
  25.0495580  30.8501830  85.3039400  23.5584980  48.9155740  70.4564950
  24.2903800  48.6315020  69.9088840  23.8178650  48.6769020  71.3464330
  22.7199770  45.0320470  70.4611280  22.0908650  45.5005570  71.0097110
  22.8347600  44.1869690  70.8957470  31.2691340  31.0633660  86.2477740
  31.1556790  31.3828270  87.1429260  32.0861080  31.4646170  85.9515020
  34.0489830  48.2105190  85.7296430  34.8415150  47.7154420  85.5222390
  34.3422980  48.8895330  86.3372040  30.1749490  39.0826130  56.6112480
  30.0943540  38.1680740  56.3404190  29.7613910  39.5793200  55.9052190
  28.3067530  40.8605150  58.4921750  27.5309630  40.3805590  58.7820320
  28.9580460  40.1810800  58.3177910  22.3233360  41.1724960  59.3697510
  21.4918240  40.9173670  59.7694020  22.9314340  41.2435730  60.1055430
  32.3274960  45.2665340  57.2720880  31.8656490  44.4952580  57.6008050
  33.1400510  45.2931410  57.7773330  22.3034620  45.2065050  59.5655530
  22.6062660  44.3162790  59.3865750  23.0478210  45.7635270  59.3377780
  20.7325310  36.1326850  53.1539900  19.8442010  36.4742820  53.0519780
  21.0166500  35.9327170  52.2620730  18.6958320  38.7332500  59.0379600
  19.2674430  37.9654700  59.0383240  18.6959860  39.0321260  58.1286210
  28.5538270  47.5523350  56.8924870  27.9349710  48.0080850  56.3219310
  29.4090050  47.7074810  56.4914570  27.7476520  43.5362340  58.4991910
  27.6784800  42.5952280  58.3381040  28.5096380  43.6263750  59.0714480
  19.9383190  34.1416860  60.8248530  19.7586030  33.2442610  61.1051290
  19.5363270  34.6888730  61.4995480  28.7781690  36.3432720  58.7260840
  29.1546510  35.4704600  58.6134510  28.6801200  36.6791420  57.8351280
  22.9086700  34.7158350  54.1878280  23.0153450  35.6162080  54.4947040
  21.9979060  34.6676320  53.8972930  32.5605810  33.8383160  55.6589180
  33.3815430  33.3479730  55.7014660  32.5939890  34.4280820  56.4121020
  20.5569860  36.6377360  59.4330870  21.2379970  36.9015730  60.0518270
  20.2417910  35.7978230  59.7668880  24.7494430  37.6844720  58.5203460
  25.2572650  38.1825690  59.1608480  25.2807670  36.9079920  58.3442820
  36.8505360  35.8549910  62.2232810  36.1457530  36.2431620  61.7047920
  37.1163280  36.5500200  62.8253740  23.0330530  32.3243280  62.7866880
  23.0348970  32.8415670  61.9812780  22.2034840  31.8473460  62.7636810
  29.4201620  42.4362590  54.2856780  28.8018890  42.9012040  53.7219500
  29.9324870  43.1290070  54.7026290  24.2833380  41.9638460  60.9640380
  23.9502760  42.5907380  61.6061450  24.4600060  42.4900340  60.1842050
  32.7967290  35.7783540  58.4316720  32.0922860  36.0668430  59.0119830
  33.1579450  36.5883650  58.0716280  22.7145860  34.0353240  60.7937330
  23.0562670  34.8795290  60.4991200  21.7761670  34.1836980  60.9102670
  23.4952480  43.9319260  62.7789560  24.1126480  44.6070340  62.4974010
  22.6345600  44.3407240  62.6877060  18.7884820  43.1219120  51.6596410
  18.4112800  43.6106220  50.9281310  19.0457890  43.7944400  52.2902940
  34.4130070  45.3958670  60.6944200  33.7293590  46.0657780  60.6860870
  34.9524360  45.5939320  59.9289060  35.8654210  35.2238330  58.8225930
  34.9179120  35.2577310  58.9541360  36.1904200  36.0377280  59.2075290
  26.3973750  31.5235510  57.1181920  26.7048730  30.9682400  56.4017420
  25.4674450  31.6579970  56.9354910  31.9488810  47.2402800  59.4089380
  31.9615970  46.8365090  58.5411640  31.3964030  48.0150090  59.3050810
  33.2434230  43.9619020  54.4979550  33.1330560  43.0193350  54.6228970
  33.2402480  44.3234660  55.3842310  31.3474250  42.1432640  60.7371990
  31.7643040  41.9292750  59.9025450  32.0714070  42.4005430  61.3080610
  28.7854510  39.5884340  53.8542040  27.8583790  39.5221720  54.0830510
  28.9379330  40.5264470  53.7397280  28.7723590  35.8601340  50.8509200
  27.8327260  36.0215300  50.9361660  29.0906850  36.5787020  50.3045190
  35.2936350  40.5419860  60.8288230  34.4654980  40.6112950  60.3538360
  35.8886830  41.1274170  60.3604060  32.8151800  41.1504640  54.3577290
  32.1964220  40.8124190  53.7103590  32.7976250  40.5064400  55.0656480
  32.2578360  37.3289180  61.7743100  31.8449540  38.1542890  62.0283090
  31.5254310  36.7434220  61.5819460  24.3911150  40.1149080  56.6361770
  23.9868150  39.4026330  56.1407670  24.4774270  39.7702320  57.5249810
  24.8592850  43.8016640  58.8000980  24.5621140  43.1962110  58.1208760
  25.8092670  43.8393950  58.6890340  23.1039770  36.8892290  60.4160810
  23.6554360  36.9987630  59.6414060  23.6183280  37.2629890  61.1316040
  32.9478460  47.3748510  62.4624080  32.4709020  48.1820700  62.2696690
  32.2640250  46.7226840  62.6150290  23.9511280  43.5398330  65.4508780
  23.0539810  43.7638300  65.6982180  23.9764150  43.6633270  64.5020180
  30.9916500  40.3891450  51.3650040  31.4309780  39.5513880  51.2187860
  31.7044920  41.0220850  51.4514180  22.7782500  40.4111650  64.0266150
  22.6390270  41.2834450  64.3953550  21.8963860  40.0684460  63.8814090
  29.1011880  45.3287520  55.3331280  29.5407790  46.0711850  54.9186670
  29.0398770  45.5714090  56.2570240  24.5762850  46.3533350  66.2351300
  24.5478280  46.7576300  65.3679730  24.4127820  45.4243710  66.0722900
  34.5733640  31.6434260  49.6791080  34.2606300  31.7361090  50.5790150
  35.3346110  32.2215290  49.6288510  21.0915780  39.0094060  54.1368420
  20.9713380  39.7356150  53.5249690  20.7816670  38.2396970  53.6596330
  36.5277670  47.1360450  67.5315470  37.0037390  47.6143340  68.2104550
  37.1484830  47.0677940  66.8060970  18.7301150  42.1809200  59.9437060
  18.8081570  42.3157970  58.9992780  19.3442830  41.4725090  60.1365180
  19.9748780  43.8809390  56.3543240  19.5676860  44.0223980  55.4996840
  20.8661790  43.5969550  56.1514450  35.9310920  44.3273300  64.6915480
  36.0573980  44.0885180  63.7732660  35.9732300  43.4957840  65.1637560
  29.7927660  48.0301300  63.2610290  30.3072330  47.9409310  64.0632720
  28.9496740  48.3761000  63.5538200  31.7682060  48.3156640  52.6894290
  31.6083200  48.0259580  53.5876120  31.6028770  47.5396770  52.1539520
  24.2470440  48.0955170  54.4665910  24.0712920  47.1790710  54.2533710
  23.3926180  48.4542460  54.7063710  31.4708190  45.8244200  51.2492290
  30.7773350  45.8221490  50.5894570  32.2131050  45.4003520  50.8186460
  31.0358120  47.4506910  55.3240780  31.4915070  46.6696290  55.6379400
  31.3750640  48.1613730  55.8681960  35.7834930  36.3805760  65.6565220
  35.1679200  36.8885430  65.1280680  35.4631350  35.4804090  65.5991160
  18.7860670  43.2223370  62.4831520  18.9491710  42.7528730  61.6650890
  19.2513120  42.7146930  63.1480360  23.5579440  32.3529130  57.5192090
  23.1147590  33.1338670  57.1876610  24.1164430  32.6759020  58.2263030
  27.8449250  35.2197650  63.1227410  27.3828620  35.4280670  63.9347350
  27.4427360  34.4057000  62.8198080  32.8453760  36.4406600  64.2524070
  31.9947350  36.1412350  64.5733140  32.6855550  36.6848610  63.3407890
  29.9403470  37.9408350  66.3522860  30.2656880  37.1072100  66.0125090
  30.7283800  38.4636870  66.5001190  26.6738260  31.9739830  52.3997920
  26.0492440  31.9699700  53.1251230  26.5868380  31.1070790  52.0033890
  25.5955340  32.8976460  59.3781690  25.8927670  33.8039290  59.2973710
  26.1440900  32.4095240  58.7641260  23.3493660  37.4762700  55.2473340
  23.1234580  37.2599870  56.1519960  22.5686190  37.9091160  54.9019310
  30.5791420  37.4826070  53.8463990  29.9800310  38.2061870  53.6627610
  31.1271030  37.4202850  53.0640440  25.7892870  38.3748280  65.9133610
  25.6936470  37.4343010  65.7634010  26.6324850  38.5963350  65.5181680
  29.1856290  36.1189610  55.8767270  29.5785860  36.4361810  55.0635960
  29.5473140  35.2401490  55.9911790  20.9203410  34.7861950  64.0667390
  20.5266800  35.6337160  64.2740170  20.2321810  34.1488320  64.2576030
  27.4948460  34.8696920  67.1364130  26.8046780  34.6769120  67.7710220
  28.2380760  35.1531560  67.6688430  18.2220460  32.7090410  58.0997470
  17.9333510  33.2793270  58.8122450  18.9666220  32.2294860  58.4628700
  18.4090690  36.6510530  49.3100190  18.3265360  37.5941290  49.4515180
  18.0573750  36.5085440  48.4312540  29.7711430  38.7095360  59.9718050
  29.0392550  39.2182170  60.3208150  29.3735770  37.8925340  59.6706830
  26.2088820  35.3849560  58.3770540  26.2124880  34.9439510  57.5275080
  27.1039940  35.7066890  58.4842360  22.0591200  35.2676050  57.3364750
  21.7191250  35.7451280  58.0931800  21.2968520  34.8141170  56.9765850
  26.2708970  36.3861640  51.3677300  26.3921790  36.3448120  52.3163120
  25.8857480  37.2485790  51.2124030  30.2337340  34.1629040  59.3840990
  30.2510080  34.6137690  60.2282840  29.9852920  33.2634680  59.5974430
  25.2830470  38.6962780  50.7660600  24.7147370  38.2481030  50.1396510
  25.9919470  39.0555560  50.2325750  33.6608090  31.5761220  65.2227370
  33.9853860  30.8450880  65.7485350  33.6964600  31.2574860  64.3208360
  20.3599650  42.5974800  64.6427330  19.9754440  41.9568470  65.2410290
  20.6711840  43.3010920  65.2122060  26.5096790  39.4451340  60.1235950
  26.8766920  38.9709910  60.8697290  26.3201850  40.3192910  60.4644290
  19.3737280  34.1895030  56.2529420  19.0884200  33.8250700  57.0908040
  19.3116140  33.4575490  55.6392560  24.2996160  38.4859980  62.4420160
  23.9953230  39.3651960  62.6670520  25.2542620  38.5459770  62.4777600
  22.8277950  42.6920970  53.0387010  22.0540210  42.1518590  52.8785730
  23.5572580  42.1727580  52.7004770  33.5865930  41.6886330  58.8313400
  34.3065050  42.1841620  58.4409510  33.3847750  41.0104220  58.1867270
  29.0475870  33.0824290  52.9742790  28.2340480  32.5837460  52.8988100
  28.8537820  33.9222540  52.5579140  28.9684730  41.7595390  64.7182400
  28.9022040  40.8391060  64.4639990  28.3389870  41.8570830  65.4327040
  31.7624260  37.4543940  51.2704950  32.6503880  37.7661170  51.0956290
  31.7329350  36.5816190  50.8785530  22.8715350  42.3601350  56.6765820
  23.3894020  41.5569610  56.6222710  22.4199370  42.2980490  57.5182650
  27.7584850  43.6267630  51.9493120  28.1000550  44.3709860  51.4536440
  26.9297560  43.9398750  52.3117950  20.3559890  39.3262720  63.5891520
  19.9974830  39.9916570  64.1764860  20.0614450  38.4946270  63.9604140
  23.5573010  39.7846960  66.4731070  23.2573150  39.9304140  65.5758890
  24.3284250  39.2252250  66.3804460  28.9001460  44.5815960  64.4686200
  28.9146000  43.6496920  64.2505110  28.1926560  44.6675720  65.1075970
  34.0338530  38.7655780  50.7384810  33.9502250  39.1970000  49.8881250
  34.7532720  39.2254130  51.1711630  35.1112670  41.2223300  63.8154780
  34.3860860  41.8152080  63.6184170  35.6388130  41.2146840  63.0168150
  35.0625780  45.6198040  53.4666940  34.4201940  44.9653660  53.7410660
  34.6756440  46.0253130  52.6907610  30.6412260  42.9483470  57.3138630
  30.9936080  42.3511600  56.6540000  29.7574590  42.6227700  57.4846880
  26.7275540  43.7081160  54.7209040  27.4146670  44.2550370  55.1016630
  25.9407960  44.2521890  54.7558650  18.8667940  39.3253980  50.2126120
  19.7362790  39.6078780  50.4962040  18.3758260  40.1389850  50.0974930
  26.0302750  40.7127190  54.3334400  26.4865530  41.5232440  54.5594590
  25.6790960  40.3950330  55.1652890  28.3335360  46.2233530  61.5626700
  28.9777580  46.4292910  62.2400120  28.6964800  45.4621930  61.1097550
  21.9314530  31.0564840  54.8056920  21.8029160  31.0482740  55.7541840
  21.1076550  31.3947930  54.4547930  29.6067440  44.2265880  60.2804150
  30.2489670  43.5259040  60.3936320  30.1316790  45.0064320  60.1001040
  33.4523160  44.5114500  50.0043290  33.2260740  43.7944940  50.5967930
  33.0619360  44.2626940  49.1665040  31.3805060  45.0260780  63.4840210
  31.7161300  45.6127470  64.1618130  30.4605400  44.8953490  63.7138000
  19.2339190  48.5381360  50.7787750  19.5936830  49.1370700  50.1245020
  19.0931530  49.0841250  51.5522780  18.9308460  32.8155960  64.2663620
  18.2166980  33.0152880  64.8716230  19.3503500  32.0395530  64.6378420
  33.0339410  42.4286440  51.6657450  32.7461110  42.8899130  52.4535330
  33.8291580  41.9684210  51.9341670  19.2181050  46.8036220  65.2530150
  19.3272170  45.8630960  65.1125540  18.5661610  47.0690970  64.6043880
  27.2093640  45.0752110  66.6528270  26.8890510  44.3561350  67.1973960
  26.5352000  45.7507180  66.7264330  25.2507810  45.9212560  51.5961420
  25.2417910  46.6542250  50.9805930  24.3306170  45.6744140  51.6888380
  20.8514450  41.1427450  52.3408180  20.2442400  41.8826350  52.3503480
  21.3263800  41.2326810  51.5146380  30.4247240  35.3078270  62.0165070
  30.7928060  34.4873480  62.3444640  29.5645440  35.3680160  62.4320720
  33.7909270  34.2635210  52.8252630  33.1622430  34.3680880  52.1110860
  33.2961190  34.4831990  53.6146510  28.2367410  45.9840800  50.2586610
  28.3379390  45.7804790  49.3288590  27.3369150  45.7299080  50.4634390
  25.7593300  36.5421160  54.2410510  25.0509450  37.0107500  54.6824120
  26.0437780  35.8843170  54.8755700  27.3849230  37.9617860  62.2403040
  27.8834480  38.4363680  62.9054890  27.5272180  37.0381380  62.4473070
  29.7908730  33.2671820  55.6806300  29.6676510  33.2857950  54.7315810
  30.7393290  33.3150760  55.8004700  26.8785520  48.5027120  54.9534280
  27.1327020  48.4648510  54.0313650  25.9298000  48.3760450  54.9462530
  23.9628320  34.8506240  51.6161220  24.8118850  35.2876390  51.5501410
  23.5959590  35.1626500  52.4433280  34.5916090  34.1785820  63.0831430
  34.0889690  34.9191220  63.4225240  35.4072750  34.5669820  62.7668220
  32.8838100  39.4219000  56.5292790  31.9428240  39.4369230  56.7040480
  33.1982170  38.6354960  56.9753090  22.8619740  41.1038600  50.0896750
  23.6283010  40.9919960  50.6522180  22.9394430  40.4076570  49.4373520
  21.5566500  38.5363670  50.7729640  21.6370090  37.5891180  50.8847040
  22.4486250  38.8670550  50.8790300  34.8863680  46.5927850  58.2047050
  35.0111100  47.4159020  58.6770860  35.7529240  46.3818580  57.8571200
  22.3581210  48.6859060  57.8764180  23.0943690  48.1374520  58.1472750
  22.7422130  49.5515070  57.7370170  19.2426690  44.7532630  53.7505690
  18.3166470  44.9953770  53.7411100  19.7083120  45.5806890  53.6290440
  21.3639490  47.8705130  67.0649760  22.1652220  48.1917180  67.4785160
  20.8491310  47.5100710  67.7869670  25.4683520  47.8589370  49.6989750
  26.2612130  48.1478200  49.2471540  24.9487870  47.4281540  49.0202230
  30.2004120  43.9785000  67.0125170  29.5942280  44.0016600  66.2720920
  29.8958230  43.2468040  67.5492420  31.6304490  47.7065290  65.6234580
  32.5826240  47.6223310  65.5734820  31.4832710  48.3707000  66.2968370
  34.5213690  47.0859500  51.1226490  34.2355200  46.6724640  50.3080670
  34.3233240  48.0147210  51.0027010  19.0837300  40.3578590  66.0085810
  19.5876320  39.7785870  66.5802040  18.3444720  40.6418820  66.5462180
  25.9860920  43.0792780  49.5632100  25.8811560  42.4645130  50.2893480
  25.8185140  42.5558670  48.7795110  26.1375240  41.7649580  65.5421330
  25.3720910  42.3334580  65.4576000  26.3191200  41.4725790  64.6489560
  29.2263650  42.1412810  50.1674090  28.6773750  42.5882110  50.8116830
  29.8482910  41.6362060  50.6911760  33.2798590  43.4954910  66.0996350
  34.0208060  43.8330670  65.5963810  32.5171270  43.6646970  65.5466120
  21.1160380  38.5008180  66.9035880  21.1565720  38.2022050  67.8121110
  21.9705880  38.9015790  66.7443400  24.8938770  41.1003730  52.0639390
  25.3155190  40.9343600  52.9070780  25.0189610  40.2903960  51.5694530
  23.0566190  37.0800280  64.8710370  22.5262650  36.5891230  64.2433710
  23.7254260  37.5084480  64.3368300  27.4066410  40.1241340  49.3116490
  27.9272070  39.4090360  48.9457640  28.0534810  40.7627210  49.6117000
  31.9544250  41.5469740  64.6351560  32.3685270  41.7014820  65.4841980
  31.0195250  41.6724960  64.7977340  32.4266420  38.8865900  66.6390710
  33.0087190  38.1318220  66.5511190  32.6028190  39.4173340  65.8622190
  23.5438490  34.0462650  64.9507660  23.4495360  33.4283400  64.2258530
  22.9635880  34.7728940  64.7237570  26.3099930  32.6035890  61.9835050
  25.8617230  32.6260150  61.1380600  25.6765130  32.2054910  62.5805350
  26.7159480  41.4990220  62.6047490  27.1347590  42.3422950  62.4323730
  25.7968110  41.6362260  62.3754270  29.0523380  39.2306400  63.9885330
  29.1719590  38.6347540  64.7280170  29.9117380  39.2676090  63.5686630
  31.3911280  39.7843590  62.5647840  30.8646500  40.3086210  61.9612980
  31.7342620  40.4170980  63.1957570  23.7897670  37.1736960  49.0097550
  23.5886730  36.3104320  49.3710890  23.6189720  37.0870320  48.0719150
  24.5666900  47.8043230  63.7205220  24.0287990  48.5289290  63.4013920
  24.8200860  47.3273570  62.9302560  25.8192150  35.7727750  65.2461150
  26.4091840  35.4643600  65.9338970  25.0012390  35.3007500  65.4021050
  30.6385580  35.3893560  65.4794170  29.9501100  34.7275100  65.4144160
  31.3591600  34.9431830  65.9242630  31.2685980  31.9845190  51.5384430
  31.5488270  31.1413090  51.8943850  30.4951710  32.2168300  52.0523180
  22.5880470  34.2737580  48.9975430  22.8906370  34.2805010  48.0894580
  23.3275060  33.9235440  49.4943090  27.4229110  49.0394440  63.9791870
  27.3487810  49.9429580  64.2864240  26.5207950  48.7206340  63.9513940
  25.8065400  33.2172200  49.9831630  25.4587400  32.5396190  49.4034080
  26.0078170  32.7561710  50.7975020  27.9714440  48.2052950  51.6018230
  28.8665230  48.5437920  51.6236990  28.0032070  47.4832360  50.9742510
  21.6110600  43.5780000  49.8305230  22.0485470  44.1209670  50.4862810
  22.0958330  42.7526950  49.8401570  18.8256400  46.3669030  57.2825490
  19.1559410  45.4990090  57.0504130  19.2547400  46.5727550  58.1130450
  23.4218320  44.6978040  54.9427460  23.1213860  44.5743010  55.8431370
  23.3155810  43.8386630  54.5343190  19.3146610  47.2339620  60.0207120
  18.8777600  47.4140420  60.8531270  19.8824290  47.9914240  59.8788840
  34.9508790  46.7356620  64.3084430  34.3510780  46.7949180  63.5648350
  35.0802690  45.7961600  64.4381280  36.1910240  44.4774440  49.6454140
  35.3603200  44.5451090  50.1161370  36.3682070  45.3678560  49.3421000
  35.6466700  41.2221920  52.1488340  36.4085610  41.7918570  52.2548030
  35.6621070  40.6549120  52.9196650  19.1471040  39.7459850  56.3796000
  18.4919880  39.4771490  55.7355700  19.9848990  39.6364330  55.9297980
  36.6526670  42.0772020  56.9930270  37.0235500  41.2939340  56.5866240
  37.2928600  42.7661120  56.8147570  33.6360430  43.4608600  62.4060590
  32.8220270  43.8905760  62.6686380  34.0434630  44.0727010  61.7929640
  35.6985870  41.5156290  49.3060860  35.9734710  42.4235170  49.1780080
  35.5096610  41.4518820  50.2422850  32.0961480  34.5401140  50.6014490
  32.5146360  34.3532120  49.7611150  31.7897540  33.6880190  50.9117420
  35.5951210  39.4525280  54.2990290  35.2194810  38.6853210  53.8671580
  34.8654330  39.8347980  54.7865220  20.1846970  40.1312420  60.9199340
  20.5520010  40.0439820  61.7995360  19.6157790  39.3678970  60.8206200
  34.9850830  38.5996800  63.9329810  34.7536920  38.3709550  63.0327760
  35.2455380  39.5196350  63.8874700  19.7362970  37.0421510  64.8257760
  18.8419020  37.0088270  65.1651470  20.2760520  37.2408300  65.5909010
  33.4238900  33.8253230  66.7109510  34.3009080  33.8336630  67.0943510
  33.4359740  33.0884070  66.1001860  18.3609120  36.9558780  52.3221330
  17.4573200  37.2188980  52.1472990  18.8449740  37.2269950  51.5421290
  34.8702170  37.6782770  57.5997530  35.3939650  37.1845420  56.9687700
  35.4561590  37.8133130  58.3445100  35.0491890  37.7622640  61.1217080
  34.0994600  37.7286180  61.2362070  35.2304900  38.6722750  60.8866850
  20.9036330  36.0124320  50.2315710  21.6128030  35.5907540  49.7462990
  20.1876270  36.0799550  49.5999060  20.5510490  32.0663650  49.2718360
  21.2738620  32.6072590  49.5899580  20.8235010  31.7927070  48.3959900
  34.3602140  36.9356120  53.5389940  34.8561260  36.7026990  54.3238820
  34.1618210  36.0967960  53.1227580  20.2402680  31.3169840  59.1740980
  20.8878870  30.7667220  58.7336140  20.6604520  31.5712990  59.9956790
  35.7889300  35.5717070  56.0727620  35.6788580  35.4173110  57.0109890
  36.5496890  35.0438010  55.8303030  34.1355020  31.5111200  62.5310620
  34.7727240  32.1245340  62.8969810  34.2829910  31.5471860  61.5859850
  36.6779570  33.4024990  49.3133760  37.6028880  33.2706170  49.1052050
  36.6555360  33.4817810  50.2670210  36.7518060  34.1735650  51.9390470
  35.9569560  34.1080770  52.4683380  36.9561340  35.1086290  51.9275820
  33.6936480  48.2127200  55.9328860  34.2895550  47.8911770  55.2563280
  33.9514630  47.7399020  56.7242130  19.9934680  31.4725510  61.9166300
  19.6449500  31.9289330  62.6824480  19.6622380  30.5782640  61.9988730
  21.5999050  44.6445110  66.0819490  21.5568680  44.2738020  66.9633950
  21.7310060  45.5822680  66.2221310  25.3005080  46.2004700  61.6829210
  25.0596440  46.4679260  60.7959730  26.2407720  46.3710430  61.7380070
  27.5059500  32.6637390  65.4385720  27.4448390  33.2559220  66.1881130
  28.4459880  32.5563350  65.2935980  30.1434060  32.3207450  65.0778010
  30.7574470  32.6386740  64.4159090  30.6883620  31.8356040  65.6973870
  36.5609240  48.2199080  62.4839850  36.0667520  48.6167950  61.7666980
  35.9522530  47.5948290  62.8777130  20.6655320  31.0001710  65.1917070
  21.2138310  30.8189760  64.4283180  20.7310630  30.2095820  65.7273380
  21.4387080  47.5907360  63.2017270  20.8447400  47.4592060  63.9407310
  21.4310920  46.7545500  62.7359370  30.8842100  30.8839590  61.4047300
  30.0101940  31.2174700  61.2020230  30.7752850  30.4112770  62.2299170
  31.7914080  33.0910460  62.7889020  31.4627440  32.2762220  62.4090750
  32.7396380  33.0480270  62.6654710  34.2448690  48.8622500  59.7626590
  33.7851660  49.6138310  59.3884610  33.6161150  48.1428970  59.7041390
  21.0699310  44.9565740  62.1525310  20.3433370  44.3371030  62.0851260
  21.1308460  45.3506350  61.2823390  24.6744410  47.1710740  58.9374720
  25.1909430  46.5598100  58.4122980  25.3241790  47.6739520  59.4285730
  27.4139910  48.0619230  59.7643700  27.7017720  47.8073530  58.8876710
  27.9263130  47.5096590  60.3549270  28.6316920  31.8009430  60.3440210
  27.8488710  32.2754930  60.6236970  28.3379850  30.8964260  60.2353390
  33.1837990  32.5032530  58.3889300  33.6246080  32.4477630  57.5410900
  32.9145580  33.4190540  58.4599480  35.0476560  32.1347770  56.3998120
  34.9864960  31.1908990  56.2529140  35.8268590  32.2427860  56.9451580
  19.3529310  48.2740130  55.3622070  19.1851350  47.6410810  56.0603960
  18.4863820  48.4799530  55.0116260  19.9757330  32.1056910  52.8653930
  20.7336690  32.2185790  52.2917960  19.5134500  32.9426110  52.8197360
  26.5171140  34.2196180  55.8556240  25.7045650  33.8453070  55.5152120
  27.0212780  33.4641260  56.1577430  31.0196120  30.8838630  57.0939310
  31.6225490  31.4558840  57.5687830  30.2789110  31.4478070  56.8713210
  34.1630720  31.2860190  52.3679590  34.3581350  32.1843640  52.6347020
  33.3760590  31.0547270  52.8612540  20.9592010  46.9673360  52.8072210
  20.4339630  47.3481390  52.1034170  20.8836590  47.5924130  53.5281920
  22.3482480  32.6320960  51.4055900  22.8775240  31.8450760  51.2763850
  22.9810800  33.3112150  51.6391430  24.5420320  32.3696100  54.4601290
  23.9123060  31.6683410  54.6271420  24.0025460  33.1300230  54.2434450
  27.4812270  48.9835330  67.1311900  28.4079580  48.7479600  67.1747860
  27.4662700  49.8107330  66.6497930  35.7157330  48.5260900  54.1286150
  35.8909520  47.8398640  53.4847070  35.0178900  49.0507950  53.7362820
  24.6675880  31.6480080  66.8953780  24.3860150  32.1513680  66.1314600
  25.0495580  30.8501830  66.5295910  23.5584980  48.9155740  51.6821460
  24.2903800  48.6315020  51.1345350  23.8178650  48.6769020  52.5720840
  22.7199770  45.0320470  51.6867790  22.0908650  45.5005570  52.2353620
  22.8347600  44.1869690  52.1213980  31.2691340  31.0633660  67.4734250
  31.1556790  31.3828270  68.3685770  32.0861080  31.4646170  67.1771530
  34.0489830  48.2105190  66.9552940  34.8415150  47.7154420  66.7478900
  34.3422980  48.8895330  67.5628550  30.1749490  39.0826130  37.8368990
  30.0943540  38.1680740  37.5660700  29.7613910  39.5793200  37.1308700
  28.3067530  40.8605150  39.7178260  27.5309630  40.3805590  40.0076830
  28.9580460  40.1810800  39.5434420  22.3233360  41.1724960  40.5954020
  21.4918240  40.9173670  40.9950530  22.9314340  41.2435730  41.3311940
  32.3274960  45.2665340  38.4977390  31.8656490  44.4952580  38.8264560
  33.1400510  45.2931410  39.0029840  22.3034620  45.2065050  40.7912040
  22.6062660  44.3162790  40.6122260  23.0478210  45.7635270  40.5634290
  20.7325310  36.1326850  34.3796410  19.8442010  36.4742820  34.2776290
  21.0166500  35.9327170  33.4877240  18.6958320  38.7332500  40.2636110
  19.2674430  37.9654700  40.2639750  18.6959860  39.0321260  39.3542720
  28.5538270  47.5523350  38.1181380  27.9349710  48.0080850  37.5475820
  29.4090050  47.7074810  37.7171080  27.7476520  43.5362340  39.7248420
  27.6784800  42.5952280  39.5637550  28.5096380  43.6263750  40.2970990
  19.9383190  34.1416860  42.0505040  19.7586030  33.2442610  42.3307800
  19.5363270  34.6888730  42.7251990  28.7781690  36.3432720  39.9517350
  29.1546510  35.4704600  39.8391020  28.6801200  36.6791420  39.0607790
  22.9086700  34.7158350  35.4134790  23.0153450  35.6162080  35.7203550
  21.9979060  34.6676320  35.1229440  20.5569860  36.6377360  40.6587380
  21.2379970  36.9015730  41.2774780  20.2417910  35.7978230  40.9925390
  24.7494430  37.6844720  39.7459970  25.2572650  38.1825690  40.3864990
  25.2807670  36.9079920  39.5699330  36.8505360  35.8549910  43.4489320
  36.1457530  36.2431620  42.9304430  37.1163280  36.5500200  44.0510250
  23.0330530  32.3243280  44.0123390  23.0348970  32.8415670  43.2069290
  22.2034840  31.8473460  43.9893320  29.4201620  42.4362590  35.5113290
  28.8018890  42.9012040  34.9476010  29.9324870  43.1290070  35.9282800
  24.2833380  41.9638460  42.1896890  23.9502760  42.5907380  42.8317960
  24.4600060  42.4900340  41.4098560  22.7145860  34.0353240  42.0193840
  23.0562670  34.8795290  41.7247710  21.7761670  34.1836980  42.1359180
  23.4952480  43.9319260  44.0046070  24.1126480  44.6070340  43.7230520
  22.6345600  44.3407240  43.9133570  18.7884820  43.1219120  32.8852920
  18.4112800  43.6106220  32.1537820  19.0457890  43.7944400  33.5159450
  34.4130070  45.3958670  41.9200710  33.7293590  46.0657780  41.9117380
  34.9524360  45.5939320  41.1545570  26.3973750  31.5235510  38.3438430
  26.7048730  30.9682400  37.6273930  25.4674450  31.6579970  38.1611420
  31.9488810  47.2402800  40.6345890  31.9615970  46.8365090  39.7668150
  31.3964030  48.0150090  40.5307320  33.2434230  43.9619020  35.7236060
  33.1330560  43.0193350  35.8485480  33.2402480  44.3234660  36.6098820
  31.3474250  42.1432640  41.9628500  31.7643040  41.9292750  41.1281960
  32.0714070  42.4005430  42.5337120  28.7854510  39.5884340  35.0798550
  27.8583790  39.5221720  35.3087020  28.9379330  40.5264470  34.9653790
  28.7723590  35.8601340  32.0765710  27.8327260  36.0215300  32.1618170
  29.0906850  36.5787020  31.5301700  35.2936350  40.5419860  42.0544740
  34.4654980  40.6112950  41.5794870  35.8886830  41.1274170  41.5860570
  32.2578360  37.3289180  42.9999610  31.8449540  38.1542890  43.2539600
  31.5254310  36.7434220  42.8075970  24.3911150  40.1149080  37.8618280
  23.9868150  39.4026330  37.3664180  24.4774270  39.7702320  38.7506320
  24.8592850  43.8016640  40.0257490  24.5621140  43.1962110  39.3465270
  25.8092670  43.8393950  39.9146850  23.1039770  36.8892290  41.6417320
  23.6554360  36.9987630  40.8670570  23.6183280  37.2629890  42.3572550
  32.9478460  47.3748510  43.6880590  32.4709020  48.1820700  43.4953200
  32.2640250  46.7226840  43.8406800  23.9511280  43.5398330  46.6765290
  23.0539810  43.7638300  46.9238690  23.9764150  43.6633270  45.7276690
  30.9916500  40.3891450  32.5906550  31.4309780  39.5513880  32.4444370
  31.7044920  41.0220850  32.6770690  22.7782500  40.4111650  45.2522660
  22.6390270  41.2834450  45.6210060  21.8963860  40.0684460  45.1070600
  29.1011880  45.3287520  36.5587790  29.5407790  46.0711850  36.1443180
  29.0398770  45.5714090  37.4826750  24.5762850  46.3533350  47.4607810
  24.5478280  46.7576300  46.5936240  24.4127820  45.4243710  47.2979410
  34.5733640  31.6434260  30.9047590  34.2606300  31.7361090  31.8046660
  35.3346110  32.2215290  30.8545020  21.0915780  39.0094060  35.3624930
  20.9713380  39.7356150  34.7506200  20.7816670  38.2396970  34.8852840
  36.5277670  47.1360450  48.7571980  37.0037390  47.6143340  49.4361060
  37.1484830  47.0677940  48.0317480  18.7301150  42.1809200  41.1693570
  18.8081570  42.3157970  40.2249290  19.3442830  41.4725090  41.3621690
  19.9748780  43.8809390  37.5799750  19.5676860  44.0223980  36.7253350
  20.8661790  43.5969550  37.3770960  35.9310920  44.3273300  45.9171990
  36.0573980  44.0885180  44.9989170  35.9732300  43.4957840  46.3894070
  29.7927660  48.0301300  44.4866800  30.3072330  47.9409310  45.2889230
  28.9496740  48.3761000  44.7794710  31.7682060  48.3156640  33.9150800
  31.6083200  48.0259580  34.8132630  31.6028770  47.5396770  33.3796030
  24.2470440  48.0955170  35.6922420  24.0712920  47.1790710  35.4790220
  23.3926180  48.4542460  35.9320220  31.4708190  45.8244200  32.4748800
  30.7773350  45.8221490  31.8151080  32.2131050  45.4003520  32.0442970
  31.0358120  47.4506910  36.5497290  31.4915070  46.6696290  36.8635910
  31.3750640  48.1613730  37.0938470  35.7834930  36.3805760  46.8821730
  35.1679200  36.8885430  46.3537190  35.4631350  35.4804090  46.8247670
  18.7860670  43.2223370  43.7088030  18.9491710  42.7528730  42.8907400
  19.2513120  42.7146930  44.3736870  23.5579440  32.3529130  38.7448600
  23.1147590  33.1338670  38.4133120  24.1164430  32.6759020  39.4519540
  27.8449250  35.2197650  44.3483920  27.3828620  35.4280670  45.1603860
  27.4427360  34.4057000  44.0454590  32.8453760  36.4406600  45.4780580
  31.9947350  36.1412350  45.7989650  32.6855550  36.6848610  44.5664400
  29.9403470  37.9408350  47.5779370  30.2656880  37.1072100  47.2381600
  30.7283800  38.4636870  47.7257700  26.6738260  31.9739830  33.6254430
  26.0492440  31.9699700  34.3507740  26.5868380  31.1070790  33.2290400
  25.5955340  32.8976460  40.6038200  25.8927670  33.8039290  40.5230220
  26.1440900  32.4095240  39.9897770  23.3493660  37.4762700  36.4729850
  23.1234580  37.2599870  37.3776470  22.5686190  37.9091160  36.1275820
  25.7892870  38.3748280  47.1390120  25.6936470  37.4343010  46.9890520
  26.6324850  38.5963350  46.7438190  29.1856290  36.1189610  37.1023780
  29.5785860  36.4361810  36.2892470  29.5473140  35.2401490  37.2168300
  20.9203410  34.7861950  45.2923900  20.5266800  35.6337160  45.4996680
  20.2321810  34.1488320  45.4832540  27.4948460  34.8696920  48.3620640
  26.8046780  34.6769120  48.9966730  28.2380760  35.1531560  48.8944940
  18.2220460  32.7090410  39.3253980  17.9333510  33.2793270  40.0378960
  18.9666220  32.2294860  39.6885210  18.4090690  36.6510530  30.5356700
  18.3265360  37.5941290  30.6771690  18.0573750  36.5085440  29.6569050
  29.7711430  38.7095360  41.1974560  29.0392550  39.2182170  41.5464660
  29.3735770  37.8925340  40.8963340  26.2088820  35.3849560  39.6027050
  26.2124880  34.9439510  38.7531590  27.1039940  35.7066890  39.7098870
  22.0591200  35.2676050  38.5621260  21.7191250  35.7451280  39.3188310
  21.2968520  34.8141170  38.2022360  26.2708970  36.3861640  32.5933810
  26.3921790  36.3448120  33.5419630  25.8857480  37.2485790  32.4380540
  30.2337340  34.1629040  40.6097500  30.2510080  34.6137690  41.4539350
  29.9852920  33.2634680  40.8230940  25.2830470  38.6962780  31.9917110
  24.7147370  38.2481030  31.3653020  25.9919470  39.0555560  31.4582260
  33.6608090  31.5761220  46.4483880  33.9853860  30.8450880  46.9741860
  33.6964600  31.2574860  45.5464870  20.3599650  42.5974800  45.8683840
  19.9754440  41.9568470  46.4666800  20.6711840  43.3010920  46.4378570
  26.5096790  39.4451340  41.3492460  26.8766920  38.9709910  42.0953800
  26.3201850  40.3192910  41.6900800  19.3737280  34.1895030  37.4785930
  19.0884200  33.8250700  38.3164550  19.3116140  33.4575490  36.8649070
  24.2996160  38.4859980  43.6676670  23.9953230  39.3651960  43.8927030
  25.2542620  38.5459770  43.7034110  22.8277950  42.6920970  34.2643520
  22.0540210  42.1518590  34.1042240  23.5572580  42.1727580  33.9261280
  33.5865930  41.6886330  40.0569910  34.3065050  42.1841620  39.6666020
  33.3847750  41.0104220  39.4123780  29.0475870  33.0824290  34.1999300
  28.2340480  32.5837460  34.1244610  28.8537820  33.9222540  33.7835650
  28.9684730  41.7595390  45.9438910  28.9022040  40.8391060  45.6896500
  28.3389870  41.8570830  46.6583550  22.8715350  42.3601350  37.9022330
  23.3894020  41.5569610  37.8479220  22.4199370  42.2980490  38.7439160
  27.7584850  43.6267630  33.1749630  28.1000550  44.3709860  32.6792950
  26.9297560  43.9398750  33.5374460  20.3559890  39.3262720  44.8148030
  19.9974830  39.9916570  45.4021370  20.0614450  38.4946270  45.1860650
  23.5573010  39.7846960  47.6987580  23.2573150  39.9304140  46.8015400
  24.3284250  39.2252250  47.6060970  28.9001460  44.5815960  45.6942710
  28.9146000  43.6496920  45.4761620  28.1926560  44.6675720  46.3332480
  35.1112670  41.2223300  45.0411290  34.3860860  41.8152080  44.8440680
  35.6388130  41.2146840  44.2424660  35.0625780  45.6198040  34.6923450
  34.4201940  44.9653660  34.9667170  34.6756440  46.0253130  33.9164120
  30.6412260  42.9483470  38.5395140  30.9936080  42.3511600  37.8796510
  29.7574590  42.6227700  38.7103390  26.7275540  43.7081160  35.9465550
  27.4146670  44.2550370  36.3273140  25.9407960  44.2521890  35.9815160
  18.8667940  39.3253980  31.4382630  19.7362790  39.6078780  31.7218550
  18.3758260  40.1389850  31.3231440  26.0302750  40.7127190  35.5590910
  26.4865530  41.5232440  35.7851100  25.6790960  40.3950330  36.3909400
  28.3335360  46.2233530  42.7883210  28.9777580  46.4292910  43.4656630
  28.6964800  45.4621930  42.3354060  21.9314530  31.0564840  36.0313430
  21.8029160  31.0482740  36.9798350  21.1076550  31.3947930  35.6804440
  29.6067440  44.2265880  41.5060660  30.2489670  43.5259040  41.6192830
  30.1316790  45.0064320  41.3257550  33.4523160  44.5114500  31.2299800
  33.2260740  43.7944940  31.8224440  33.0619360  44.2626940  30.3921550
  31.3805060  45.0260780  44.7096720  31.7161300  45.6127470  45.3874640
  30.4605400  44.8953490  44.9394510  19.2339190  48.5381360  32.0044260
  19.5936830  49.1370700  31.3501530  19.0931530  49.0841250  32.7779290
  18.9308460  32.8155960  45.4920130  18.2166980  33.0152880  46.0972740
  19.3503500  32.0395530  45.8634930  19.2181050  46.8036220  46.4786660
  19.3272170  45.8630960  46.3382050  18.5661610  47.0690970  45.8300390
  27.2093640  45.0752110  47.8784780  26.8890510  44.3561350  48.4230470
  26.5352000  45.7507180  47.9520840  25.2507810  45.9212560  32.8217930
  25.2417910  46.6542250  32.2062440  24.3306170  45.6744140  32.9144890
  20.8514450  41.1427450  33.5664690  20.2442400  41.8826350  33.5759990
  21.3263800  41.2326810  32.7402890  30.4247240  35.3078270  43.2421580
  30.7928060  34.4873480  43.5701150  29.5645440  35.3680160  43.6577230
  28.2367410  45.9840800  31.4843120  28.3379390  45.7804790  30.5545100
  27.3369150  45.7299080  31.6890900  25.7593300  36.5421160  35.4667020
  25.0509450  37.0107500  35.9080630  26.0437780  35.8843170  36.1012210
  27.3849230  37.9617860  43.4659550  27.8834480  38.4363680  44.1311400
  27.5272180  37.0381380  43.6729580  29.7908730  33.2671820  36.9062810
  29.6676510  33.2857950  35.9572320  30.7393290  33.3150760  37.0261210
  26.8785520  48.5027120  36.1790790  27.1327020  48.4648510  35.2570160
  25.9298000  48.3760450  36.1719040  23.9628320  34.8506240  32.8417730
  24.8118850  35.2876390  32.7757920  23.5959590  35.1626500  33.6689790
  34.5916090  34.1785820  44.3087940  34.0889690  34.9191220  44.6481750
  35.4072750  34.5669820  43.9924730  22.8619740  41.1038600  31.3153260
  23.6283010  40.9919960  31.8778690  22.9394430  40.4076570  30.6630030
  21.5566500  38.5363670  31.9986150  21.6370090  37.5891180  32.1103550
  22.4486250  38.8670550  32.1046810  34.8863680  46.5927850  39.4303560
  35.0111100  47.4159020  39.9027370  35.7529240  46.3818580  39.0827710
  22.3581210  48.6859060  39.1020690  23.0943690  48.1374520  39.3729260
  22.7422130  49.5515070  38.9626680  19.2426690  44.7532630  34.9762200
  18.3166470  44.9953770  34.9667610  19.7083120  45.5806890  34.8546950
  21.3639490  47.8705130  48.2906270  22.1652220  48.1917180  48.7041670
  20.8491310  47.5100710  49.0126180  25.4683520  47.8589370  30.9246260
  26.2612130  48.1478200  30.4728050  24.9487870  47.4281540  30.2458740
  30.2004120  43.9785000  48.2381680  29.5942280  44.0016600  47.4977430
  29.8958230  43.2468040  48.7748930  31.6304490  47.7065290  46.8491090
  32.5826240  47.6223310  46.7991330  31.4832710  48.3707000  47.5224880
  34.5213690  47.0859500  32.3483000  34.2355200  46.6724640  31.5337180
  34.3233240  48.0147210  32.2283520  19.0837300  40.3578590  47.2342320
  19.5876320  39.7785870  47.8058550  18.3444720  40.6418820  47.7718690
  25.9860920  43.0792780  30.7888610  25.8811560  42.4645130  31.5149990
  25.8185140  42.5558670  30.0051620  26.1375240  41.7649580  46.7677840
  25.3720910  42.3334580  46.6832510  26.3191200  41.4725790  45.8746070
  29.2263650  42.1412810  31.3930600  28.6773750  42.5882110  32.0373340
  29.8482910  41.6362060  31.9168270  33.2798590  43.4954910  47.3252860
  34.0208060  43.8330670  46.8220320  32.5171270  43.6646970  46.7722630
  21.1160380  38.5008180  48.1292390  21.1565720  38.2022050  49.0377620
  21.9705880  38.9015790  47.9699910  24.8938770  41.1003730  33.2895900
  25.3155190  40.9343600  34.1327290  25.0189610  40.2903960  32.7951040
  23.0566190  37.0800280  46.0966880  22.5262650  36.5891230  45.4690220
  23.7254260  37.5084480  45.5624810  27.4066410  40.1241340  30.5373000
  27.9272070  39.4090360  30.1714150  28.0534810  40.7627210  30.8373510
  31.9544250  41.5469740  45.8608070  32.3685270  41.7014820  46.7098490
  31.0195250  41.6724960  46.0233850  32.4266420  38.8865900  47.8647220
  33.0087190  38.1318220  47.7767700  32.6028190  39.4173340  47.0878700
  23.5438490  34.0462650  46.1764170  23.4495360  33.4283400  45.4515040
  22.9635880  34.7728940  45.9494080  26.3099930  32.6035890  43.2091560
  25.8617230  32.6260150  42.3637110  25.6765130  32.2054910  43.8061860
  26.7159480  41.4990220  43.8304000  27.1347590  42.3422950  43.6580240
  25.7968110  41.6362260  43.6010780  29.0523380  39.2306400  45.2141840
  29.1719590  38.6347540  45.9536680  29.9117380  39.2676090  44.7943140
  31.3911280  39.7843590  43.7904350  30.8646500  40.3086210  43.1869490
  31.7342620  40.4170980  44.4214080  23.7897670  37.1736960  30.2354060
  23.5886730  36.3104320  30.5967400  23.6189720  37.0870320  29.2975660
  24.5666900  47.8043230  44.9461730  24.0287990  48.5289290  44.6270430
  24.8200860  47.3273570  44.1559070  25.8192150  35.7727750  46.4717660
  26.4091840  35.4643600  47.1595480  25.0012390  35.3007500  46.6277560
  30.6385580  35.3893560  46.7050680  29.9501100  34.7275100  46.6400670
  31.3591600  34.9431830  47.1499140  31.2685980  31.9845190  32.7640940
  31.5488270  31.1413090  33.1200360  30.4951710  32.2168300  33.2779690
  22.5880470  34.2737580  30.2231940  22.8906370  34.2805010  29.3151090
  23.3275060  33.9235440  30.7199600  27.4229110  49.0394440  45.2048380
  27.3487810  49.9429580  45.5120750  26.5207950  48.7206340  45.1770450
  25.8065400  33.2172200  31.2088140  25.4587400  32.5396190  30.6290590
  26.0078170  32.7561710  32.0231530  27.9714440  48.2052950  32.8274740
  28.8665230  48.5437920  32.8493500  28.0032070  47.4832360  32.1999020
  21.6110600  43.5780000  31.0561740  22.0485470  44.1209670  31.7119320
  22.0958330  42.7526950  31.0658080  18.8256400  46.3669030  38.5082000
  19.1559410  45.4990090  38.2760640  19.2547400  46.5727550  39.3386960
  23.4218320  44.6978040  36.1683970  23.1213860  44.5743010  37.0687880
  23.3155810  43.8386630  35.7599700  19.3146610  47.2339620  41.2463630
  18.8777600  47.4140420  42.0787780  19.8824290  47.9914240  41.1045350
  34.9508790  46.7356620  45.5340940  34.3510780  46.7949180  44.7904860
  35.0802690  45.7961600  45.6637790  36.1910240  44.4774440  30.8710650
  35.3603200  44.5451090  31.3417880  36.3682070  45.3678560  30.5677510
  19.1471040  39.7459850  37.6052510  18.4919880  39.4771490  36.9612210
  19.9848990  39.6364330  37.1554490  36.6526670  42.0772020  38.2186780
  37.0235500  41.2939340  37.8122750  37.2928600  42.7661120  38.0404080
  33.6360430  43.4608600  43.6317100  32.8220270  43.8905760  43.8942890
  34.0434630  44.0727010  43.0186150  35.6985870  41.5156290  30.5317370
  35.9734710  42.4235170  30.4036590  35.5096610  41.4518820  31.4679360
  32.0961480  34.5401140  31.8271000  32.5146360  34.3532120  30.9867660
  31.7897540  33.6880190  32.1373930  20.1846970  40.1312420  42.1455850
  20.5520010  40.0439820  43.0251870  19.6157790  39.3678970  42.0462710
  34.9850830  38.5996800  45.1586320  34.7536920  38.3709550  44.2584270
  35.2455380  39.5196350  45.1131210  19.7362970  37.0421510  46.0514270
  18.8419020  37.0088270  46.3907980  20.2760520  37.2408300  46.8165520
  33.4238900  33.8253230  47.9366020  34.3009080  33.8336630  48.3200020
  33.4359740  33.0884070  47.3258370  18.3609120  36.9558780  33.5477840
  17.4573200  37.2188980  33.3729500  18.8449740  37.2269950  32.7677800
  35.0491890  37.7622640  42.3473590  34.0994600  37.7286180  42.4618580
  35.2304900  38.6722750  42.1123360  20.9036330  36.0124320  31.4572220
  21.6128030  35.5907540  30.9719500  20.1876270  36.0799550  30.8255570
  20.5510490  32.0663650  30.4974870  21.2738620  32.6072590  30.8156090
  20.8235010  31.7927070  29.6216410  20.2402680  31.3169840  40.3997490
  20.8878870  30.7667220  39.9592650  20.6604520  31.5712990  41.2213300
  34.1355020  31.5111200  43.7567130  34.7727240  32.1245340  44.1226320
  34.2829910  31.5471860  42.8116360  36.6779570  33.4024990  30.5390270
  37.6028880  33.2706170  30.3308560  36.6555360  33.4817810  31.4926720
  33.6936480  48.2127200  37.1585370  34.2895550  47.8911770  36.4819790
  33.9514630  47.7399020  37.9498640  19.9934680  31.4725510  43.1422810
  19.6449500  31.9289330  43.9080990  19.6622380  30.5782640  43.2245240
  21.5999050  44.6445110  47.3076000  21.5568680  44.2738020  48.1890460
  21.7310060  45.5822680  47.4477820  25.3005080  46.2004700  42.9085720
  25.0596440  46.4679260  42.0216240  26.2407720  46.3710430  42.9636580
  27.5059500  32.6637390  46.6642230  27.4448390  33.2559220  47.4137640
  28.4459880  32.5563350  46.5192490  30.1434060  32.3207450  46.3034520
  30.7574470  32.6386740  45.6415600  30.6883620  31.8356040  46.9230380
  36.5609240  48.2199080  43.7096360  36.0667520  48.6167950  42.9923490
  35.9522530  47.5948290  44.1033640  20.6655320  31.0001710  46.4173580
  21.2138310  30.8189760  45.6539690  20.7310630  30.2095820  46.9529890
  21.4387080  47.5907360  44.4273780  20.8447400  47.4592060  45.1663820
  21.4310920  46.7545500  43.9615880  30.8842100  30.8839590  42.6303810
  30.0101940  31.2174700  42.4276740  30.7752850  30.4112770  43.4555680
  31.7914080  33.0910460  44.0145530  31.4627440  32.2762220  43.6347260
  32.7396380  33.0480270  43.8911220  34.2448690  48.8622500  40.9883100
  33.7851660  49.6138310  40.6141120  33.6161150  48.1428970  40.9297900
  21.0699310  44.9565740  43.3781820  20.3433370  44.3371030  43.3107770
  21.1308460  45.3506350  42.5079900  24.6744410  47.1710740  40.1631230
  25.1909430  46.5598100  39.6379490  25.3241790  47.6739520  40.6542240
  27.4139910  48.0619230  40.9900210  27.7017720  47.8073530  40.1133220
  27.9263130  47.5096590  41.5805780  28.6316920  31.8009430  41.5696720
  27.8488710  32.2754930  41.8493480  28.3379850  30.8964260  41.4609900
  19.3529310  48.2740130  36.5878580  19.1851350  47.6410810  37.2860470
  18.4863820  48.4799530  36.2372770  19.9757330  32.1056910  34.0910440
  20.7336690  32.2185790  33.5174470  19.5134500  32.9426110  34.0453870
  26.5171140  34.2196180  37.0812750  25.7045650  33.8453070  36.7408630
  27.0212780  33.4641260  37.3833940  31.0196120  30.8838630  38.3195820
  31.6225490  31.4558840  38.7944340  30.2789110  31.4478070  38.0969720
  20.9592010  46.9673360  34.0328720  20.4339630  47.3481390  33.3290680
  20.8836590  47.5924130  34.7538430  22.3482480  32.6320960  32.6312410
  22.8775240  31.8450760  32.5020360  22.9810800  33.3112150  32.8647940
  24.5420320  32.3696100  35.6857800  23.9123060  31.6683410  35.8527930
  24.0025460  33.1300230  35.4690960  27.4812270  48.9835330  48.3568410
  28.4079580  48.7479600  48.4004370  27.4662700  49.8107330  47.8754440
  35.7157330  48.5260900  35.3542660  35.8909520  47.8398640  34.7103580
  35.0178900  49.0507950  34.9619330  24.6675880  31.6480080  48.1210290
  24.3860150  32.1513680  47.3571110  25.0495580  30.8501830  47.7552420
  23.5584980  48.9155740  32.9077970  24.2903800  48.6315020  32.3601860
  23.8178650  48.6769020  33.7977350  22.7199770  45.0320470  32.9124300
  22.0908650  45.5005570  33.4610130  22.8347600  44.1869690  33.3470490
  31.2691340  31.0633660  48.6990760  31.1556790  31.3828270  49.5942280
  32.0861080  31.4646170  48.4028040  34.0489830  48.2105190  48.1809450
  34.8415150  47.7154420  47.9735410  34.3422980  48.8895330  48.7885060
  30.1749490  39.0826130  19.0625500  30.0943540  38.1680740  18.7917210
  29.7613910  39.5793200  18.3565210  28.3067530  40.8605150  20.9434770
  27.5309630  40.3805590  21.2333340  28.9580460  40.1810800  20.7690930
  22.3233360  41.1724960  21.8210530  21.4918240  40.9173670  22.2207040
  22.9314340  41.2435730  22.5568450  32.3274960  45.2665340  19.7233900
  31.8656490  44.4952580  20.0521070  33.1400510  45.2931410  20.2286350
  22.3034620  45.2065050  22.0168550  22.6062660  44.3162790  21.8378770
  23.0478210  45.7635270  21.7890800  20.7325310  36.1326850  15.6052920
  19.8442010  36.4742820  15.5032800  21.0166500  35.9327170  14.7133750
  18.6958320  38.7332500  21.4892620  19.2674430  37.9654700  21.4896260
  18.6959860  39.0321260  20.5799230  28.5538270  47.5523350  19.3437890
  27.9349710  48.0080850  18.7732330  29.4090050  47.7074810  18.9427590
  27.7476520  43.5362340  20.9504930  27.6784800  42.5952280  20.7894060
  28.5096380  43.6263750  21.5227500  19.9383190  34.1416860  23.2761550
  19.7586030  33.2442610  23.5564310  19.5363270  34.6888730  23.9508500
  28.7781690  36.3432720  21.1773860  29.1546510  35.4704600  21.0647530
  28.6801200  36.6791420  20.2864300  22.9086700  34.7158350  16.6391300
  23.0153450  35.6162080  16.9460060  21.9979060  34.6676320  16.3485950
  32.5605810  33.8383160  18.1102200  33.3815430  33.3479730  18.1527680
  32.5939890  34.4280820  18.8634040  20.5569860  36.6377360  21.8843890
  21.2379970  36.9015730  22.5031290  20.2417910  35.7978230  22.2181900
  24.7494430  37.6844720  20.9716480  25.2572650  38.1825690  21.6121500
  25.2807670  36.9079920  20.7955840  36.8505360  35.8549910  24.6745830
  36.1457530  36.2431620  24.1560940  37.1163280  36.5500200  25.2766760
  23.0330530  32.3243280  25.2379900  23.0348970  32.8415670  24.4325800
  22.2034840  31.8473460  25.2149830  29.4201620  42.4362590  16.7369800
  28.8018890  42.9012040  16.1732520  29.9324870  43.1290070  17.1539310
  24.2833380  41.9638460  23.4153400  23.9502760  42.5907380  24.0574470
  24.4600060  42.4900340  22.6355070  32.7967290  35.7783540  20.8829740
  32.0922860  36.0668430  21.4632850  33.1579450  36.5883650  20.5229300
  22.7145860  34.0353240  23.2450350  23.0562670  34.8795290  22.9504220
  21.7761670  34.1836980  23.3615690  23.4952480  43.9319260  25.2302580
  24.1126480  44.6070340  24.9487030  22.6345600  44.3407240  25.1390080
  18.7884820  43.1219120  14.1109430  18.4112800  43.6106220  13.3794330
  19.0457890  43.7944400  14.7415960  34.4130070  45.3958670  23.1457220
  33.7293590  46.0657780  23.1373890  34.9524360  45.5939320  22.3802080
  35.8654210  35.2238330  21.2738950  34.9179120  35.2577310  21.4054380
  36.1904200  36.0377280  21.6588310  26.3973750  31.5235510  19.5694940
  26.7048730  30.9682400  18.8530440  25.4674450  31.6579970  19.3867930
  31.9488810  47.2402800  21.8602400  31.9615970  46.8365090  20.9924660
  31.3964030  48.0150090  21.7563830  33.2434230  43.9619020  16.9492570
  33.1330560  43.0193350  17.0741990  33.2402480  44.3234660  17.8355330
  31.3474250  42.1432640  23.1885010  31.7643040  41.9292750  22.3538470
  32.0714070  42.4005430  23.7593630  28.7854510  39.5884340  16.3055060
  27.8583790  39.5221720  16.5343530  28.9379330  40.5264470  16.1910300
  28.7723590  35.8601340  13.3022220  27.8327260  36.0215300  13.3874680
  29.0906850  36.5787020  12.7558210  35.2936350  40.5419860  23.2801250
  34.4654980  40.6112950  22.8051380  35.8886830  41.1274170  22.8117080
  32.8151800  41.1504640  16.8090310  32.1964220  40.8124190  16.1616610
  32.7976250  40.5064400  17.5169500  32.2578360  37.3289180  24.2256120
  31.8449540  38.1542890  24.4796110  31.5254310  36.7434220  24.0332480
  24.3911150  40.1149080  19.0874790  23.9868150  39.4026330  18.5920690
  24.4774270  39.7702320  19.9762830  24.8592850  43.8016640  21.2514000
  24.5621140  43.1962110  20.5721780  25.8092670  43.8393950  21.1403360
  23.1039770  36.8892290  22.8673830  23.6554360  36.9987630  22.0927080
  23.6183280  37.2629890  23.5829060  32.9478460  47.3748510  24.9137100
  32.4709020  48.1820700  24.7209710  32.2640250  46.7226840  25.0663310
  23.9511280  43.5398330  27.9021800  23.0539810  43.7638300  28.1495200
  23.9764150  43.6633270  26.9533200  30.9916500  40.3891450  13.8163060
  31.4309780  39.5513880  13.6700880  31.7044920  41.0220850  13.9027200
  22.7782500  40.4111650  26.4779170  22.6390270  41.2834450  26.8466570
  21.8963860  40.0684460  26.3327110  29.1011880  45.3287520  17.7844300
  29.5407790  46.0711850  17.3699690  29.0398770  45.5714090  18.7083260
  24.5762850  46.3533350  28.6864320  24.5478280  46.7576300  27.8192750
  24.4127820  45.4243710  28.5235920  34.5733640  31.6434260  12.1304100
  34.2606300  31.7361090  13.0303170  35.3346110  32.2215290  12.0801530
  21.0915780  39.0094060  16.5881440  20.9713380  39.7356150  15.9762710
  20.7816670  38.2396970  16.1109350  36.5277670  47.1360450  29.9828490
  37.0037390  47.6143340  30.6617570  37.1484830  47.0677940  29.2573990
  18.7301150  42.1809200  22.3950080  18.8081570  42.3157970  21.4505800
  19.3442830  41.4725090  22.5878200  19.9748780  43.8809390  18.8056260
  19.5676860  44.0223980  17.9509860  20.8661790  43.5969550  18.6027470
  35.9310920  44.3273300  27.1428500  36.0573980  44.0885180  26.2245680
  35.9732300  43.4957840  27.6150580  29.7927660  48.0301300  25.7123310
  30.3072330  47.9409310  26.5145740  28.9496740  48.3761000  26.0051220
  31.7682060  48.3156640  15.1407310  31.6083200  48.0259580  16.0389140
  31.6028770  47.5396770  14.6052540  24.2470440  48.0955170  16.9178930
  24.0712920  47.1790710  16.7046730  23.3926180  48.4542460  17.1576730
  31.4708190  45.8244200  13.7005310  30.7773350  45.8221490  13.0407590
  32.2131050  45.4003520  13.2699480  31.0358120  47.4506910  17.7753800
  31.4915070  46.6696290  18.0892420  31.3750640  48.1613730  18.3194980
  35.7834930  36.3805760  28.1078240  35.1679200  36.8885430  27.5793700
  35.4631350  35.4804090  28.0504180  18.7860670  43.2223370  24.9344540
  18.9491710  42.7528730  24.1163910  19.2513120  42.7146930  25.5993380
  23.5579440  32.3529130  19.9705110  23.1147590  33.1338670  19.6389630
  24.1164430  32.6759020  20.6776050  27.8449250  35.2197650  25.5740430
  27.3828620  35.4280670  26.3860370  27.4427360  34.4057000  25.2711100
  32.8453760  36.4406600  26.7037090  31.9947350  36.1412350  27.0246160
  32.6855550  36.6848610  25.7920910  29.9403470  37.9408350  28.8035880
  30.2656880  37.1072100  28.4638110  30.7283800  38.4636870  28.9514210
  26.6738260  31.9739830  14.8510940  26.0492440  31.9699700  15.5764250
  26.5868380  31.1070790  14.4546910  25.5955340  32.8976460  21.8294710
  25.8927670  33.8039290  21.7486730  26.1440900  32.4095240  21.2154280
  23.3493660  37.4762700  17.6986360  23.1234580  37.2599870  18.6032980
  22.5686190  37.9091160  17.3532330  30.5791420  37.4826070  16.2977010
  29.9800310  38.2061870  16.1140630  31.1271030  37.4202850  15.5153460
  25.7892870  38.3748280  28.3646630  25.6936470  37.4343010  28.2147030
  26.6324850  38.5963350  27.9694700  29.1856290  36.1189610  18.3280290
  29.5785860  36.4361810  17.5148980  29.5473140  35.2401490  18.4424810
  20.9203410  34.7861950  26.5180410  20.5266800  35.6337160  26.7253190
  20.2321810  34.1488320  26.7089050  27.4948460  34.8696920  29.5877150
  26.8046780  34.6769120  30.2223240  28.2380760  35.1531560  30.1201450
  18.2220460  32.7090410  20.5510490  17.9333510  33.2793270  21.2635470
  18.9666220  32.2294860  20.9141720  18.4090690  36.6510530  11.7613210
  18.3265360  37.5941290  11.9028200  18.0573750  36.5085440  10.8825560
  29.7711430  38.7095360  22.4231070  29.0392550  39.2182170  22.7721170
  29.3735770  37.8925340  22.1219850  26.2088820  35.3849560  20.8283560
  26.2124880  34.9439510  19.9788100  27.1039940  35.7066890  20.9355380
  22.0591200  35.2676050  19.7877770  21.7191250  35.7451280  20.5444820
  21.2968520  34.8141170  19.4278870  26.2708970  36.3861640  13.8190320
  26.3921790  36.3448120  14.7676140  25.8857480  37.2485790  13.6637050
  30.2337340  34.1629040  21.8354010  30.2510080  34.6137690  22.6795860
  29.9852920  33.2634680  22.0487450  25.2830470  38.6962780  13.2173620
  24.7147370  38.2481030  12.5909530  25.9919470  39.0555560  12.6838770
  33.6608090  31.5761220  27.6740390  33.9853860  30.8450880  28.1998370
  33.6964600  31.2574860  26.7721380  20.3599650  42.5974800  27.0940350
  19.9754440  41.9568470  27.6923310  20.6711840  43.3010920  27.6635080
  26.5096790  39.4451340  22.5748970  26.8766920  38.9709910  23.3210310
  26.3201850  40.3192910  22.9157310  19.3737280  34.1895030  18.7042440
  19.0884200  33.8250700  19.5421060  19.3116140  33.4575490  18.0905580
  24.2996160  38.4859980  24.8933180  23.9953230  39.3651960  25.1183540
  25.2542620  38.5459770  24.9290620  22.8277950  42.6920970  15.4900030
  22.0540210  42.1518590  15.3298750  23.5572580  42.1727580  15.1517790
  33.5865930  41.6886330  21.2826420  34.3065050  42.1841620  20.8922530
  33.3847750  41.0104220  20.6380290  29.0475870  33.0824290  15.4255810
  28.2340480  32.5837460  15.3501120  28.8537820  33.9222540  15.0092160
  28.9684730  41.7595390  27.1695420  28.9022040  40.8391060  26.9153010
  28.3389870  41.8570830  27.8840060  31.7624260  37.4543940  13.7217970
  32.6503880  37.7661170  13.5469310  31.7329350  36.5816190  13.3298550
  22.8715350  42.3601350  19.1278840  23.3894020  41.5569610  19.0735730
  22.4199370  42.2980490  19.9695670  27.7584850  43.6267630  14.4006140
  28.1000550  44.3709860  13.9049460  26.9297560  43.9398750  14.7630970
  20.3559890  39.3262720  26.0404540  19.9974830  39.9916570  26.6277880
  20.0614450  38.4946270  26.4117160  23.5573010  39.7846960  28.9244090
  23.2573150  39.9304140  28.0271910  24.3284250  39.2252250  28.8317480
  28.9001460  44.5815960  26.9199220  28.9146000  43.6496920  26.7018130
  28.1926560  44.6675720  27.5588990  34.0338530  38.7655780  13.1897830
  33.9502250  39.1970000  12.3394270  34.7532720  39.2254130  13.6224650
  35.1112670  41.2223300  26.2667800  34.3860860  41.8152080  26.0697190
  35.6388130  41.2146840  25.4681170  35.0625780  45.6198040  15.9179960
  34.4201940  44.9653660  16.1923680  34.6756440  46.0253130  15.1420630
  30.6412260  42.9483470  19.7651650  30.9936080  42.3511600  19.1053020
  29.7574590  42.6227700  19.9359900  26.7275540  43.7081160  17.1722060
  27.4146670  44.2550370  17.5529650  25.9407960  44.2521890  17.2071670
  18.8667940  39.3253980  12.6639140  19.7362790  39.6078780  12.9475060
  18.3758260  40.1389850  12.5487950  26.0302750  40.7127190  16.7847420
  26.4865530  41.5232440  17.0107610  25.6790960  40.3950330  17.6165910
  28.3335360  46.2233530  24.0139720  28.9777580  46.4292910  24.6913140
  28.6964800  45.4621930  23.5610570  21.9314530  31.0564840  17.2569940
  21.8029160  31.0482740  18.2054860  21.1076550  31.3947930  16.9060950
  29.6067440  44.2265880  22.7317170  30.2489670  43.5259040  22.8449340
  30.1316790  45.0064320  22.5514060  33.4523160  44.5114500  12.4556310
  33.2260740  43.7944940  13.0480950  33.0619360  44.2626940  11.6178060
  31.3805060  45.0260780  25.9353230  31.7161300  45.6127470  26.6131150
  30.4605400  44.8953490  26.1651020  19.2339190  48.5381360  13.2300770
  19.5936830  49.1370700  12.5758040  19.0931530  49.0841250  14.0035800
  18.9308460  32.8155960  26.7176640  18.2166980  33.0152880  27.3229250
  19.3503500  32.0395530  27.0891440  33.0339410  42.4286440  14.1170470
  32.7461110  42.8899130  14.9048350  33.8291580  41.9684210  14.3854690
  19.2181050  46.8036220  27.7043170  19.3272170  45.8630960  27.5638560
  18.5661610  47.0690970  27.0556900  27.2093640  45.0752110  29.1041290
  26.8890510  44.3561350  29.6486980  26.5352000  45.7507180  29.1777350
  25.2507810  45.9212560  14.0474440  25.2417910  46.6542250  13.4318950
  24.3306170  45.6744140  14.1401400  20.8514450  41.1427450  14.7921200
  20.2442400  41.8826350  14.8016500  21.3263800  41.2326810  13.9659400
  30.4247240  35.3078270  24.4678090  30.7928060  34.4873480  24.7957660
  29.5645440  35.3680160  24.8833740  33.7909270  34.2635210  15.2765650
  33.1622430  34.3680880  14.5623880  33.2961190  34.4831990  16.0659530
  28.2367410  45.9840800  12.7099630  28.3379390  45.7804790  11.7801610
  27.3369150  45.7299080  12.9147410  25.7593300  36.5421160  16.6923530
  25.0509450  37.0107500  17.1337140  26.0437780  35.8843170  17.3268720
  27.3849230  37.9617860  24.6916060  27.8834480  38.4363680  25.3567910
  27.5272180  37.0381380  24.8986090  29.7908730  33.2671820  18.1319320
  29.6676510  33.2857950  17.1828830  30.7393290  33.3150760  18.2517720
  26.8785520  48.5027120  17.4047300  27.1327020  48.4648510  16.4826670
  25.9298000  48.3760450  17.3975550  23.9628320  34.8506240  14.0674240
  24.8118850  35.2876390  14.0014430  23.5959590  35.1626500  14.8946300
  34.5916090  34.1785820  25.5344450  34.0889690  34.9191220  25.8738260
  35.4072750  34.5669820  25.2181240  32.8838100  39.4219000  18.9805810
  31.9428240  39.4369230  19.1553500  33.1982170  38.6354960  19.4266110
  22.8619740  41.1038600  12.5409770  23.6283010  40.9919960  13.1035200
  22.9394430  40.4076570  11.8886540  21.5566500  38.5363670  13.2242660
  21.6370090  37.5891180  13.3360060  22.4486250  38.8670550  13.3303320
  34.8863680  46.5927850  20.6560070  35.0111100  47.4159020  21.1283880
  35.7529240  46.3818580  20.3084220  22.3581210  48.6859060  20.3277200
  23.0943690  48.1374520  20.5985770  22.7422130  49.5515070  20.1883190
  19.2426690  44.7532630  16.2018710  18.3166470  44.9953770  16.1924120
  19.7083120  45.5806890  16.0803460  21.3639490  47.8705130  29.5162780
  22.1652220  48.1917180  29.9298180  20.8491310  47.5100710  30.2382690
  25.4683520  47.8589370  12.1502770  26.2612130  48.1478200  11.6984560
  24.9487870  47.4281540  11.4715250  30.2004120  43.9785000  29.4638190
  29.5942280  44.0016600  28.7233940  29.8958230  43.2468040  30.0005440
  31.6304490  47.7065290  28.0747600  32.5826240  47.6223310  28.0247840
  31.4832710  48.3707000  28.7481390  34.5213690  47.0859500  13.5739510
  34.2355200  46.6724640  12.7593690  34.3233240  48.0147210  13.4540030
  19.0837300  40.3578590  28.4598830  19.5876320  39.7785870  29.0315060
  18.3444720  40.6418820  28.9975200  25.9860920  43.0792780  12.0145120
  25.8811560  42.4645130  12.7406500  25.8185140  42.5558670  11.2308130
  26.1375240  41.7649580  27.9934350  25.3720910  42.3334580  27.9089020
  26.3191200  41.4725790  27.1002580  29.2263650  42.1412810  12.6187110
  28.6773750  42.5882110  13.2629850  29.8482910  41.6362060  13.1424780
  33.2798590  43.4954910  28.5509370  34.0208060  43.8330670  28.0476830
  32.5171270  43.6646970  27.9979140  21.1160380  38.5008180  29.3548900
  21.1565720  38.2022050  30.2634130  21.9705880  38.9015790  29.1956420
  24.8938770  41.1003730  14.5152410  25.3155190  40.9343600  15.3583800
  25.0189610  40.2903960  14.0207550  23.0566190  37.0800280  27.3223390
  22.5262650  36.5891230  26.6946730  23.7254260  37.5084480  26.7881320
  27.4066410  40.1241340  11.7629510  27.9272070  39.4090360  11.3970660
  28.0534810  40.7627210  12.0630020  31.9544250  41.5469740  27.0864580
  32.3685270  41.7014820  27.9355000  31.0195250  41.6724960  27.2490360
  32.4266420  38.8865900  29.0903730  33.0087190  38.1318220  29.0024210
  32.6028190  39.4173340  28.3135210  23.5438490  34.0462650  27.4020680
  23.4495360  33.4283400  26.6771550  22.9635880  34.7728940  27.1750590
  26.3099930  32.6035890  24.4348070  25.8617230  32.6260150  23.5893620
  25.6765130  32.2054910  25.0318370  26.7159480  41.4990220  25.0560510
  27.1347590  42.3422950  24.8836750  25.7968110  41.6362260  24.8267290
  29.0523380  39.2306400  26.4398350  29.1719590  38.6347540  27.1793190
  29.9117380  39.2676090  26.0199650  31.3911280  39.7843590  25.0160860
  30.8646500  40.3086210  24.4126000  31.7342620  40.4170980  25.6470590
  23.7897670  37.1736960  11.4610570  23.5886730  36.3104320  11.8223910
  23.6189720  37.0870320  10.5232170  24.5666900  47.8043230  26.1718240
  24.0287990  48.5289290  25.8526940  24.8200860  47.3273570  25.3815580
  25.8192150  35.7727750  27.6974170  26.4091840  35.4643600  28.3851990
  25.0012390  35.3007500  27.8534070  30.6385580  35.3893560  27.9307190
  29.9501100  34.7275100  27.8657180  31.3591600  34.9431830  28.3755650
  31.2685980  31.9845190  13.9897450  31.5488270  31.1413090  14.3456870
  30.4951710  32.2168300  14.5036200  22.5880470  34.2737580  11.4488450
  22.8906370  34.2805010  10.5407600  23.3275060  33.9235440  11.9456110
  27.4229110  49.0394440  26.4304890  27.3487810  49.9429580  26.7377260
  26.5207950  48.7206340  26.4026960  25.8065400  33.2172200  12.4344650
  25.4587400  32.5396190  11.8547100  26.0078170  32.7561710  13.2488040
  27.9714440  48.2052950  14.0531250  28.8665230  48.5437920  14.0750010
  28.0032070  47.4832360  13.4255530  21.6110600  43.5780000  12.2818250
  22.0485470  44.1209670  12.9375830  22.0958330  42.7526950  12.2914590
  18.8256400  46.3669030  19.7338510  19.1559410  45.4990090  19.5017150
  19.2547400  46.5727550  20.5643470  23.4218320  44.6978040  17.3940480
  23.1213860  44.5743010  18.2944390  23.3155810  43.8386630  16.9856210
  19.3146610  47.2339620  22.4720140  18.8777600  47.4140420  23.3044290
  19.8824290  47.9914240  22.3301860  34.9508790  46.7356620  26.7597450
  34.3510780  46.7949180  26.0161370  35.0802690  45.7961600  26.8894300
  36.1910240  44.4774440  12.0967160  35.3603200  44.5451090  12.5674390
  36.3682070  45.3678560  11.7934020  35.6466700  41.2221920  14.6001360
  36.4085610  41.7918570  14.7061050  35.6621070  40.6549120  15.3709670
  19.1471040  39.7459850  18.8309020  18.4919880  39.4771490  18.1868720
  19.9848990  39.6364330  18.3811000  36.6526670  42.0772020  19.4443290
  37.0235500  41.2939340  19.0379260  37.2928600  42.7661120  19.2660590
  33.6360430  43.4608600  24.8573610  32.8220270  43.8905760  25.1199400
  34.0434630  44.0727010  24.2442660  35.6985870  41.5156290  11.7573880
  35.9734710  42.4235170  11.6293100  35.5096610  41.4518820  12.6935870
  32.0961480  34.5401140  13.0527510  32.5146360  34.3532120  12.2124170
  31.7897540  33.6880190  13.3630440  35.5951210  39.4525280  16.7503310
  35.2194810  38.6853210  16.3184600  34.8654330  39.8347980  17.2378240
  20.1846970  40.1312420  23.3712360  20.5520010  40.0439820  24.2508380
  19.6157790  39.3678970  23.2719220  34.9850830  38.5996800  26.3842830
  34.7536920  38.3709550  25.4840780  35.2455380  39.5196350  26.3387720
  19.7362970  37.0421510  27.2770780  18.8419020  37.0088270  27.6164490
  20.2760520  37.2408300  28.0422030  33.4238900  33.8253230  29.1622530
  34.3009080  33.8336630  29.5456530  33.4359740  33.0884070  28.5514880
  18.3609120  36.9558780  14.7734350  17.4573200  37.2188980  14.5986010
  18.8449740  37.2269950  13.9934310  34.8702170  37.6782770  20.0510550
  35.3939650  37.1845420  19.4200720  35.4561590  37.8133130  20.7958120
  35.0491890  37.7622640  23.5730100  34.0994600  37.7286180  23.6875090
  35.2304900  38.6722750  23.3379870  20.9036330  36.0124320  12.6828730
  21.6128030  35.5907540  12.1976010  20.1876270  36.0799550  12.0512080
  20.5510490  32.0663650  11.7231380  21.2738620  32.6072590  12.0412600
  20.8235010  31.7927070  10.8472920  34.3602140  36.9356120  15.9902960
  34.8561260  36.7026990  16.7751840  34.1618210  36.0967960  15.5740600
  20.2402680  31.3169840  21.6254000  20.8878870  30.7667220  21.1849160
  20.6604520  31.5712990  22.4469810  35.7889300  35.5717070  18.5240640
  35.6788580  35.4173110  19.4622910  36.5496890  35.0438010  18.2816050
  34.1355020  31.5111200  24.9823640  34.7727240  32.1245340  25.3482830
  34.2829910  31.5471860  24.0372870  36.6779570  33.4024990  11.7646780
  37.6028880  33.2706170  11.5565070  36.6555360  33.4817810  12.7183230
  36.7518060  34.1735650  14.3903490  35.9569560  34.1080770  14.9196400
  36.9561340  35.1086290  14.3788840  33.6936480  48.2127200  18.3841880
  34.2895550  47.8911770  17.7076300  33.9514630  47.7399020  19.1755150
  19.9934680  31.4725510  24.3679320  19.6449500  31.9289330  25.1337500
  19.6622380  30.5782640  24.4501750  21.5999050  44.6445110  28.5332510
  21.5568680  44.2738020  29.4146970  21.7310060  45.5822680  28.6734330
  25.3005080  46.2004700  24.1342230  25.0596440  46.4679260  23.2472750
  26.2407720  46.3710430  24.1893090  27.5059500  32.6637390  27.8898740
  27.4448390  33.2559220  28.6394150  28.4459880  32.5563350  27.7449000
  30.1434060  32.3207450  27.5291030  30.7574470  32.6386740  26.8672110
  30.6883620  31.8356040  28.1486890  36.5609240  48.2199080  24.9352870
  36.0667520  48.6167950  24.2180000  35.9522530  47.5948290  25.3290150
  20.6655320  31.0001710  27.6430090  21.2138310  30.8189760  26.8796200
  20.7310630  30.2095820  28.1786400  21.4387080  47.5907360  25.6530290
  20.8447400  47.4592060  26.3920330  21.4310920  46.7545500  25.1872390
  30.8842100  30.8839590  23.8560320  30.0101940  31.2174700  23.6533250
  30.7752850  30.4112770  24.6812190  31.7914080  33.0910460  25.2402040
  31.4627440  32.2762220  24.8603770  32.7396380  33.0480270  25.1167730
  34.2448690  48.8622500  22.2139610  33.7851660  49.6138310  21.8397630
  33.6161150  48.1428970  22.1554410  21.0699310  44.9565740  24.6038330
  20.3433370  44.3371030  24.5364280  21.1308460  45.3506350  23.7336410
  24.6744410  47.1710740  21.3887740  25.1909430  46.5598100  20.8636000
  25.3241790  47.6739520  21.8798750  27.4139910  48.0619230  22.2156720
  27.7017720  47.8073530  21.3389730  27.9263130  47.5096590  22.8062290
  28.6316920  31.8009430  22.7953230  27.8488710  32.2754930  23.0749990
  28.3379850  30.8964260  22.6866410  33.1837990  32.5032530  20.8402320
  33.6246080  32.4477630  19.9923920  32.9145580  33.4190540  20.9112500
  35.0476560  32.1347770  18.8511140  34.9864960  31.1908990  18.7042160
  35.8268590  32.2427860  19.3964600  19.3529310  48.2740130  17.8135090
  19.1851350  47.6410810  18.5116980  18.4863820  48.4799530  17.4629280
  19.9757330  32.1056910  15.3166950  20.7336690  32.2185790  14.7430980
  19.5134500  32.9426110  15.2710380  26.5171140  34.2196180  18.3069260
  25.7045650  33.8453070  17.9665140  27.0212780  33.4641260  18.6090450
  31.0196120  30.8838630  19.5452330  31.6225490  31.4558840  20.0200850
  30.2789110  31.4478070  19.3226230  34.1630720  31.2860190  14.8192610
  34.3581350  32.1843640  15.0860040  33.3760590  31.0547270  15.3125560
  20.9592010  46.9673360  15.2585230  20.4339630  47.3481390  14.5547190
  20.8836590  47.5924130  15.9794940  22.3482480  32.6320960  13.8568920
  22.8775240  31.8450760  13.7276870  22.9810800  33.3112150  14.0904450
  24.5420320  32.3696100  16.9114310  23.9123060  31.6683410  17.0784440
  24.0025460  33.1300230  16.6947470  27.4812270  48.9835330  29.5824920
  28.4079580  48.7479600  29.6260880  27.4662700  49.8107330  29.1010950
  35.7157330  48.5260900  16.5799170  35.8909520  47.8398640  15.9360090
  35.0178900  49.0507950  16.1875840  24.6675880  31.6480080  29.3466800
  24.3860150  32.1513680  28.5827620  25.0495580  30.8501830  28.9808930
  23.5584980  48.9155740  14.1334480  24.2903800  48.6315020  13.5858370
  23.8178650  48.6769020  15.0233860  22.7199770  45.0320470  14.1380810
  22.0908650  45.5005570  14.6866640  22.8347600  44.1869690  14.5727000
  31.2691340  31.0633660  29.9247270  31.1556790  31.3828270  30.8198790
  32.0861080  31.4646170  29.6284550  34.0489830  48.2105190  29.4065960
  34.8415150  47.7154420  29.1991920  34.3422980  48.8895330  30.0141570
  28.3067530  40.8605150   2.1691280  27.5309630  40.3805590   2.4589850
  28.9580460  40.1810800   1.9947440  22.3233360  41.1724960   3.0467040
  21.4918240  40.9173670   3.4463550  22.9314340  41.2435730   3.7824960
  22.3034620  45.2065050   3.2425060  22.6062660  44.3162790   3.0635280
  23.0478210  45.7635270   3.0147310  18.6958320  38.7332500   2.7149130
  19.2674430  37.9654700   2.7152770  18.6959860  39.0321260   1.8055740
  27.7476520  43.5362340   2.1761440  27.6784800  42.5952280   2.0150570
  28.5096380  43.6263750   2.7484010  19.9383190  34.1416860   4.5018060
  19.7586030  33.2442610   4.7820820  19.5363270  34.6888730   5.1765010
  20.5569860  36.6377360   3.1100400  21.2379970  36.9015730   3.7287800
  20.2417910  35.7978230   3.4438410  24.7494430  37.6844720   2.1972990
  25.2572650  38.1825690   2.8378010  25.2807670  36.9079920   2.0212350
  36.8505360  35.8549910   5.9002340  36.1457530  36.2431620   5.3817450
  37.1163280  36.5500200   6.5023270  23.0330530  32.3243280   6.4636410
  23.0348970  32.8415670   5.6582310  22.2034840  31.8473460   6.4406340
  24.2833380  41.9638460   4.6409910  23.9502760  42.5907380   5.2830980
  24.4600060  42.4900340   3.8611580  32.7967290  35.7783540   2.1086250
  32.0922860  36.0668430   2.6889360  33.1579450  36.5883650   1.7485810
  22.7145860  34.0353240   4.4706860  23.0562670  34.8795290   4.1760730
  21.7761670  34.1836980   4.5872200  23.4952480  43.9319260   6.4559090
  24.1126480  44.6070340   6.1743540  22.6345600  44.3407240   6.3646590
  34.4130070  45.3958670   4.3713730  33.7293590  46.0657780   4.3630400
  34.9524360  45.5939320   3.6058590  35.8654210  35.2238330   2.4995460
  34.9179120  35.2577310   2.6310890  36.1904200  36.0377280   2.8844820
  31.9488810  47.2402800   3.0858910  31.9615970  46.8365090   2.2181170
  31.3964030  48.0150090   2.9820340  31.3474250  42.1432640   4.4141520
  31.7643040  41.9292750   3.5794980  32.0714070  42.4005430   4.9850140
  35.2936350  40.5419860   4.5057760  34.4654980  40.6112950   4.0307890
  35.8886830  41.1274170   4.0373590  32.2578360  37.3289180   5.4512630
  31.8449540  38.1542890   5.7052620  31.5254310  36.7434220   5.2588990
  24.8592850  43.8016640   2.4770510  24.5621140  43.1962110   1.7978290
  25.8092670  43.8393950   2.3659870  23.1039770  36.8892290   4.0930340
  23.6554360  36.9987630   3.3183590  23.6183280  37.2629890   4.8085570
  32.9478460  47.3748510   6.1393610  32.4709020  48.1820700   5.9466220
  32.2640250  46.7226840   6.2919820  23.9511280  43.5398330   9.1278310
  23.0539810  43.7638300   9.3751710  23.9764150  43.6633270   8.1789710
  22.7782500  40.4111650   7.7035680  22.6390270  41.2834450   8.0723080
  21.8963860  40.0684460   7.5583620  24.5762850  46.3533350   9.9120830
  24.5478280  46.7576300   9.0449260  24.4127820  45.4243710   9.7492430
  36.5277670  47.1360450  11.2085000  37.0037390  47.6143340  11.8874080
  37.1484830  47.0677940  10.4830500  18.7301150  42.1809200   3.6206590
  18.8081570  42.3157970   2.6762310  19.3442830  41.4725090   3.8134710
  35.9310920  44.3273300   8.3685010  36.0573980  44.0885180   7.4502190
  35.9732300  43.4957840   8.8407090  29.7927660  48.0301300   6.9379820
  30.3072330  47.9409310   7.7402250  28.9496740  48.3761000   7.2307730
  35.7834930  36.3805760   9.3334750  35.1679200  36.8885430   8.8050210
  35.4631350  35.4804090   9.2760690  18.7860670  43.2223370   6.1601050
  18.9491710  42.7528730   5.3420420  19.2513120  42.7146930   6.8249890
  27.8449250  35.2197650   6.7996940  27.3828620  35.4280670   7.6116880
  27.4427360  34.4057000   6.4967610  32.8453760  36.4406600   7.9293600
  31.9947350  36.1412350   8.2502670  32.6855550  36.6848610   7.0177420
  29.9403470  37.9408350  10.0292390  30.2656880  37.1072100   9.6894620
  30.7283800  38.4636870  10.1770720  25.5955340  32.8976460   3.0551220
  25.8927670  33.8039290   2.9743240  26.1440900  32.4095240   2.4410790
  25.7892870  38.3748280   9.5903140  25.6936470  37.4343010   9.4403540
  26.6324850  38.5963350   9.1951210  20.9203410  34.7861950   7.7436920
  20.5266800  35.6337160   7.9509700  20.2321810  34.1488320   7.9345560
  27.4948460  34.8696920  10.8133660  26.8046780  34.6769120  11.4479750
  28.2380760  35.1531560  11.3457960  18.2220460  32.7090410   1.7767000
  17.9333510  33.2793270   2.4891980  18.9666220  32.2294860   2.1398230
  29.7711430  38.7095360   3.6487580  29.0392550  39.2182170   3.9977680
  29.3735770  37.8925340   3.3476360  30.2337340  34.1629040   3.0610520
  30.2510080  34.6137690   3.9052370  29.9852920  33.2634680   3.2743960
  33.6608090  31.5761220   8.8996900  33.9853860  30.8450880   9.4254880
  33.6964600  31.2574860   7.9977890  20.3599650  42.5974800   8.3196860
  19.9754440  41.9568470   8.9179820  20.6711840  43.3010920   8.8891590
  26.5096790  39.4451340   3.8005480  26.8766920  38.9709910   4.5466820
  26.3201850  40.3192910   4.1413820  24.2996160  38.4859980   6.1189690
  23.9953230  39.3651960   6.3440050  25.2542620  38.5459770   6.1547130
  33.5865930  41.6886330   2.5082930  34.3065050  42.1841620   2.1179040
  33.3847750  41.0104220   1.8636800  28.9684730  41.7595390   8.3951930
  28.9022040  40.8391060   8.1409520  28.3389870  41.8570830   9.1096570
  20.3559890  39.3262720   7.2661050  19.9974830  39.9916570   7.8534390
  20.0614450  38.4946270   7.6373670  23.5573010  39.7846960  10.1500600
  23.2573150  39.9304140   9.2528420  24.3284250  39.2252250  10.0573990
  28.9001460  44.5815960   8.1455730  28.9146000  43.6496920   7.9274640
  28.1926560  44.6675720   8.7845500  35.1112670  41.2223300   7.4924310
  34.3860860  41.8152080   7.2953700  35.6388130  41.2146840   6.6937680
  28.3335360  46.2233530   5.2396230  28.9777580  46.4292910   5.9169650
  28.6964800  45.4621930   4.7867080  29.6067440  44.2265880   3.9573680
  30.2489670  43.5259040   4.0705850  30.1316790  45.0064320   3.7770570
  31.3805060  45.0260780   7.1609740  31.7161300  45.6127470   7.8387660
  30.4605400  44.8953490   7.3907530  18.9308460  32.8155960   7.9433150
  18.2166980  33.0152880   8.5485760  19.3503500  32.0395530   8.3147950
  19.2181050  46.8036220   8.9299680  19.3272170  45.8630960   8.7895070
  18.5661610  47.0690970   8.2813410  27.2093640  45.0752110  10.3297800
  26.8890510  44.3561350  10.8743490  26.5352000  45.7507180  10.4033860
  30.4247240  35.3078270   5.6934600  30.7928060  34.4873480   6.0214170
  29.5645440  35.3680160   6.1090250  27.3849230  37.9617860   5.9172570
  27.8834480  38.4363680   6.5824420  27.5272180  37.0381380   6.1242600
  34.5916090  34.1785820   6.7600960  34.0889690  34.9191220   7.0994770
  35.4072750  34.5669820   6.4437750  21.3639490  47.8705130  10.7419290
  22.1652220  48.1917180  11.1554690  20.8491310  47.5100710  11.4639200
  30.2004120  43.9785000  10.6894700  29.5942280  44.0016600   9.9490450
  29.8958230  43.2468040  11.2261950  31.6304490  47.7065290   9.3004110
  32.5826240  47.6223310   9.2504350  31.4832710  48.3707000   9.9737900
  19.0837300  40.3578590   9.6855340  19.5876320  39.7785870  10.2571570
  18.3444720  40.6418820  10.2231710  26.1375240  41.7649580   9.2190860
  25.3720910  42.3334580   9.1345530  26.3191200  41.4725790   8.3259090
  33.2798590  43.4954910   9.7765880  34.0208060  43.8330670   9.2733340
  32.5171270  43.6646970   9.2235650  21.1160380  38.5008180  10.5805410
  21.1565720  38.2022050  11.4890640  21.9705880  38.9015790  10.4212930
  23.0566190  37.0800280   8.5479900  22.5262650  36.5891230   7.9203240
  23.7254260  37.5084480   8.0137830  31.9544250  41.5469740   8.3121090
  32.3685270  41.7014820   9.1611510  31.0195250  41.6724960   8.4746870
  32.4266420  38.8865900  10.3160240  33.0087190  38.1318220  10.2280720
  32.6028190  39.4173340   9.5391720  23.5438490  34.0462650   8.6277190
  23.4495360  33.4283400   7.9028060  22.9635880  34.7728940   8.4007100
  26.3099930  32.6035890   5.6604580  25.8617230  32.6260150   4.8150130
  25.6765130  32.2054910   6.2574880  26.7159480  41.4990220   6.2817020
  27.1347590  42.3422950   6.1093260  25.7968110  41.6362260   6.0523800
  29.0523380  39.2306400   7.6654860  29.1719590  38.6347540   8.4049700
  29.9117380  39.2676090   7.2456160  31.3911280  39.7843590   6.2417370
  30.8646500  40.3086210   5.6382510  31.7342620  40.4170980   6.8727100
  24.5666900  47.8043230   7.3974750  24.0287990  48.5289290   7.0783450
  24.8200860  47.3273570   6.6072090  25.8192150  35.7727750   8.9230680
  26.4091840  35.4643600   9.6108500  25.0012390  35.3007500   9.0790580
  30.6385580  35.3893560   9.1563700  29.9501100  34.7275100   9.0913690
  31.3591600  34.9431830   9.6012160  27.4229110  49.0394440   7.6561400
  27.3487810  49.9429580   7.9633770  26.5207950  48.7206340   7.6283470
  19.3146610  47.2339620   3.6976650  18.8777600  47.4140420   4.5300800
  19.8824290  47.9914240   3.5558370  34.9508790  46.7356620   7.9853960
  34.3510780  46.7949180   7.2417880  35.0802690  45.7961600   8.1150810
  33.6360430  43.4608600   6.0830120  32.8220270  43.8905760   6.3455910
  34.0434630  44.0727010   5.4699170  20.1846970  40.1312420   4.5968870
  20.5520010  40.0439820   5.4764890  19.6157790  39.3678970   4.4975730
  34.9850830  38.5996800   7.6099340  34.7536920  38.3709550   6.7097290
  35.2455380  39.5196350   7.5644230  19.7362970  37.0421510   8.5027290
  18.8419020  37.0088270   8.8421000  20.2760520  37.2408300   9.2678540
  33.4238900  33.8253230  10.3879040  34.3009080  33.8336630  10.7713040
  33.4359740  33.0884070   9.7771390  35.0491890  37.7622640   4.7986610
  34.0994600  37.7286180   4.9131600  35.2304900  38.6722750   4.5636380
  20.2402680  31.3169840   2.8510510  20.8878870  30.7667220   2.4105670
  20.6604520  31.5712990   3.6726320  34.1355020  31.5111200   6.2080150
  34.7727240  32.1245340   6.5739340  34.2829910  31.5471860   5.2629380
  19.9934680  31.4725510   5.5935830  19.6449500  31.9289330   6.3594010
  19.6622380  30.5782640   5.6758260  21.5999050  44.6445110   9.7589020
  21.5568680  44.2738020  10.6403480  21.7310060  45.5822680   9.8990840
  25.3005080  46.2004700   5.3598740  25.0596440  46.4679260   4.4729260
  26.2407720  46.3710430   5.4149600  27.5059500  32.6637390   9.1155250
  27.4448390  33.2559220   9.8650660  28.4459880  32.5563350   8.9705510
  30.1434060  32.3207450   8.7547540  30.7574470  32.6386740   8.0928620
  30.6883620  31.8356040   9.3743400  36.5609240  48.2199080   6.1609380
  36.0667520  48.6167950   5.4436510  35.9522530  47.5948290   6.5546660
  20.6655320  31.0001710   8.8686600  21.2138310  30.8189760   8.1052710
  20.7310630  30.2095820   9.4042910  21.4387080  47.5907360   6.8786800
  20.8447400  47.4592060   7.6176840  21.4310920  46.7545500   6.4128900
  30.8842100  30.8839590   5.0816830  30.0101940  31.2174700   4.8789760
  30.7752850  30.4112770   5.9068700  31.7914080  33.0910460   6.4658550
  31.4627440  32.2762220   6.0860280  32.7396380  33.0480270   6.3424240
  34.2448690  48.8622500   3.4396120  33.7851660  49.6138310   3.0654140
  33.6161150  48.1428970   3.3810920  21.0699310  44.9565740   5.8294840
  20.3433370  44.3371030   5.7620790  21.1308460  45.3506350   4.9592920
  24.6744410  47.1710740   2.6144250  25.1909430  46.5598100   2.0892510
  25.3241790  47.6739520   3.1055260  27.4139910  48.0619230   3.4413230
  27.7017720  47.8073530   2.5646240  27.9263130  47.5096590   4.0318800
  28.6316920  31.8009430   4.0209740  27.8488710  32.2754930   4.3006500
  28.3379850  30.8964260   3.9122920  27.4812270  48.9835330  10.8081430
  28.4079580  48.7479600  10.8517390  27.4662700  49.8107330  10.3267460
  24.6675880  31.6480080  10.5723310  24.3860150  32.1513680   9.8084130
  25.0495580  30.8501830  10.2065440  31.2691340  31.0633660  11.1503780
  31.1556790  31.3828270  12.0455300  32.0861080  31.4646170  10.8541060
  34.0489830  48.2105190  10.6322470  34.8415150  47.7154420  10.4248430
  34.3422980  48.8895330  11.2398080  30.1749490  20.3082640  94.1599460
  30.0943540  19.3937250  93.8891170  29.7613910  20.8049710  93.4539170
  32.3274960  26.4921850  94.8207860  31.8656490  25.7209090  95.1495030
  33.1400510  26.5187920  95.3260310  20.7325310  17.3583360  90.7026880
  19.8442010  17.6999330  90.6006760  21.0166500  17.1583680  89.8107710
  28.5538270  28.7779860  94.4411850  27.9349710  29.2337360  93.8706290
  29.4090050  28.9331320  94.0401550  22.9086700  15.9414860  91.7365260
  23.0153450  16.8418590  92.0434020  21.9979060  15.8932830  91.4459910
  32.5605810  15.0639670  93.2076160  33.3815430  14.5736240  93.2501640
  32.5939890  15.6537330  93.9608000  29.4201620  23.6619100  91.8343760
  28.8018890  24.1268550  91.2706480  29.9324870  24.3546580  92.2513270
  18.7884820  24.3475630  89.2083390  18.4112800  24.8362730  88.4768290
  19.0457890  25.0200910  89.8389920  26.3973750  12.7492020  94.6668900
  26.7048730  12.1938910  93.9504400  25.4674450  12.8836480  94.4841890
  33.2434230  25.1875530  92.0466530  33.1330560  24.2449860  92.1715950
  33.2402480  25.5491170  92.9329290  28.7854510  20.8140850  91.4029020
  27.8583790  20.7478230  91.6317490  28.9379330  21.7520980  91.2884260
  28.7723590  17.0857850  88.3996180  27.8327260  17.2471810  88.4848640
  29.0906850  17.8043530  87.8532170  32.8151800  22.3761150  91.9064270
  32.1964220  22.0380700  91.2590570  32.7976250  21.7320910  92.6143460
  24.3911150  21.3405590  94.1848750  23.9868150  20.6282840  93.6894650
  24.4774270  20.9958830  95.0736790  30.9916500  21.6147960  88.9137020
  31.4309780  20.7770390  88.7674840  31.7044920  22.2477360  89.0001160
  29.1011880  26.5544030  92.8818260  29.5407790  27.2968360  92.4673650
  29.0398770  26.7970600  93.8057220  34.5733640  12.8690770  87.2278060
  34.2606300  12.9617600  88.1277130  35.3346110  13.4471800  87.1775490
  21.0915780  20.2350570  91.6855400  20.9713380  20.9612660  91.0736670
  20.7816670  19.4653480  91.2083310  19.9748780  25.1065900  93.9030220
  19.5676860  25.2480490  93.0483820  20.8661790  24.8226060  93.7001430
  31.7682060  29.5413150  90.2381270  31.6083200  29.2516090  91.1363100
  31.6028770  28.7653280  89.7026500  24.2470440  29.3211680  92.0152890
  24.0712920  28.4047220  91.8020690  23.3926180  29.6798970  92.2550690
  31.4708190  27.0500710  88.7979270  30.7773350  27.0478000  88.1381550
  32.2131050  26.6260030  88.3673440  31.0358120  28.6763420  92.8727760
  31.4915070  27.8952800  93.1866380  31.3750640  29.3870240  93.4168940
  23.5579440  13.5785640  95.0679070  23.1147590  14.3595180  94.7363590
  24.1164430  13.9015530  95.7750010  26.6738260  13.1996340  89.9484900
  26.0492440  13.1956210  90.6738210  26.5868380  12.3327300  89.5520870
  23.3493660  18.7019210  92.7960320  23.1234580  18.4856380  93.7006940
  22.5686190  19.1347670  92.4506290  30.5791420  18.7082580  91.3950970
  29.9800310  19.4318380  91.2114590  31.1271030  18.6459360  90.6127420
  29.1856290  17.3446120  93.4254250  29.5785860  17.6618320  92.6122940
  29.5473140  16.4658000  93.5398770  18.4090690  17.8767040  86.8587170
  18.3265360  18.8197800  87.0002160  18.0573750  17.7341950  85.9799520
  26.2088820  16.6106070  95.9257520  26.2124880  16.1696020  95.0762060
  27.1039940  16.9323400  96.0329340  22.0591200  16.4932560  94.8851730
  21.7191250  16.9707790  95.6418780  21.2968520  16.0397680  94.5252830
  26.2708970  17.6118150  88.9164280  26.3921790  17.5704630  89.8650100
  25.8857480  18.4742300  88.7611010  25.2830470  19.9219290  88.3147580
  24.7147370  19.4737540  87.6883490  25.9919470  20.2812070  87.7812730
  19.3737280  15.4151540  93.8016400  19.0884200  15.0507210  94.6395020
  19.3116140  14.6832000  93.1879540  22.8277950  23.9177480  90.5873990
  22.0540210  23.3775100  90.4272710  23.5572580  23.3984090  90.2491750
  29.0475870  14.3080800  90.5229770  28.2340480  13.8093970  90.4475080
  28.8537820  15.1479050  90.1066120  31.7624260  18.6800450  88.8191930
  32.6503880  18.9917680  88.6443270  31.7329350  17.8072700  88.4272510
  22.8715350  23.5857860  94.2252800  23.3894020  22.7826120  94.1709690
  22.4199370  23.5237000  95.0669630  27.7584850  24.8524140  89.4980100
  28.1000550  25.5966370  89.0023420  26.9297560  25.1655260  89.8604930
  34.0338530  19.9912290  88.2871790  33.9502250  20.4226510  87.4368230
  34.7532720  20.4510640  88.7198610  35.0625780  26.8454550  91.0153920
  34.4201940  26.1910170  91.2897640  34.6756440  27.2509640  90.2394590
  30.6412260  24.1739980  94.8625610  30.9936080  23.5768110  94.2026980
  29.7574590  23.8484210  95.0333860  26.7275540  24.9337670  92.2696020
  27.4146670  25.4806880  92.6503610  25.9407960  25.4778400  92.3045630
  18.8667940  20.5510490  87.7613100  19.7362790  20.8335290  88.0449020
  18.3758260  21.3646360  87.6461910  26.0302750  21.9383700  91.8821380
  26.4865530  22.7488950  92.1081570  25.6790960  21.6206840  92.7139870
  21.9314530  12.2821350  92.3543900  21.8029160  12.2739250  93.3028820
  21.1076550  12.6204440  92.0034910  33.4523160  25.7371010  87.5530270
  33.2260740  25.0201450  88.1454910  33.0619360  25.4883450  86.7152020
  19.2339190  29.7637870  88.3274730  19.5936830  30.3627210  87.6732000
  19.0931530  30.3097760  89.1009760  33.0339410  23.6542950  89.2144430
  32.7461110  24.1155640  90.0022310  33.8291580  23.1940720  89.4828650
  25.2507810  27.1469070  89.1448400  25.2417910  27.8798760  88.5292910
  24.3306170  26.9000650  89.2375360  20.8514450  22.3683960  89.8895160
  20.2442400  23.1082860  89.8990460  21.3263800  22.4583320  89.0633360
  33.7909270  15.4891720  90.3739610  33.1622430  15.5937390  89.6597840
  33.2961190  15.7088500  91.1633490  28.2367410  27.2097310  87.8073590
  28.3379390  27.0061300  86.8775570  27.3369150  26.9555590  88.0121370
  25.7593300  17.7677670  91.7897490  25.0509450  18.2364010  92.2311100
  26.0437780  17.1099680  92.4242680  29.7908730  14.4928330  93.2293280
  29.6676510  14.5114460  92.2802790  30.7393290  14.5407270  93.3491680
  26.8785520  29.7283630  92.5021260  27.1327020  29.6905020  91.5800630
  25.9298000  29.6016960  92.4949510  23.9628320  16.0762750  89.1648200
  24.8118850  16.5132900  89.0988390  23.5959590  16.3883010  89.9920260
  32.8838100  20.6475510  94.0779770  31.9428240  20.6625740  94.2527460
  33.1982170  19.8611470  94.5240070  22.8619740  22.3295110  87.6383730
  23.6283010  22.2176470  88.2009160  22.9394430  21.6333080  86.9860500
  21.5566500  19.7620180  88.3216620  21.6370090  18.8147690  88.4334020
  22.4486250  20.0927060  88.4277280  22.3581210  29.9115570  95.4251160
  23.0943690  29.3631030  95.6959730  22.7422130  30.7771580  95.2857150
  19.2426690  25.9789140  91.2992670  18.3166470  26.2210280  91.2898080
  19.7083120  26.8063400  91.1777420  25.4683520  29.0845880  87.2476730
  26.2612130  29.3734710  86.7958520  24.9487870  28.6538050  86.5689210
  34.5213690  28.3116010  88.6713470  34.2355200  27.8981150  87.8567650
  34.3233240  29.2403720  88.5513990  25.9860920  24.3049290  87.1119080
  25.8811560  23.6901640  87.8380460  25.8185140  23.7815180  86.3282090
  29.2263650  23.3669320  87.7161070  28.6773750  23.8138620  88.3603810
  29.8482910  22.8618570  88.2398740  24.8938770  22.3260240  89.6126370
  25.3155190  22.1600110  90.4557760  25.0189610  21.5160470  89.1181510
  27.4066410  21.3497850  86.8603470  27.9272070  20.6346870  86.4944620
  28.0534810  21.9883720  87.1603980  23.7897670  18.3993470  86.5584530
  23.5886730  17.5360830  86.9197870  23.6189720  18.3126830  85.6206130
  31.2685980  13.2101700  89.0871410  31.5488270  12.3669600  89.4430830
  30.4951710  13.4424810  89.6010160  22.5880470  15.4994090  86.5462410
  22.8906370  15.5061520  85.6381560  23.3275060  15.1491950  87.0430070
  25.8065400  14.4428710  87.5318610  25.4587400  13.7652700  86.9521060
  26.0078170  13.9818220  88.3462000  27.9714440  29.4309460  89.1505210
  28.8665230  29.7694430  89.1723970  28.0032070  28.7088870  88.5229490
  21.6110600  24.8036510  87.3792210  22.0485470  25.3466180  88.0349790
  22.0958330  23.9783460  87.3888550  18.8256400  27.5925540  94.8312470
  19.1559410  26.7246600  94.5991110  19.2547400  27.7984060  95.6617430
  23.4218320  25.9234550  92.4914440  23.1213860  25.7999520  93.3918350
  23.3155810  25.0643140  92.0830170  36.1910240  25.7030950  87.1941120
  35.3603200  25.7707600  87.6648350  36.3682070  26.5935070  86.8907980
  35.6466700  22.4478430  89.6975320  36.4085610  23.0175080  89.8035010
  35.6621070  21.8805630  90.4683630  19.1471040  20.9716360  93.9282980
  18.4919880  20.7028000  93.2842680  19.9848990  20.8620840  93.4784960
  36.6526670  23.3028530  94.5417250  37.0235500  22.5195850  94.1353220
  37.2928600  23.9917630  94.3634550  35.6985870  22.7412800  86.8547840
  35.9734710  23.6491680  86.7267060  35.5096610  22.6775330  87.7909830
  32.0961480  15.7657650  88.1501470  32.5146360  15.5788630  87.3098130
  31.7897540  14.9136700  88.4604400  35.5951210  20.6781790  91.8477270
  35.2194810  19.9109720  91.4158560  34.8654330  21.0604490  92.3352200
  18.3609120  18.1815290  89.8708310  17.4573200  18.4445490  89.6959970
  18.8449740  18.4526460  89.0908270  34.8702170  18.9039280  95.1484510
  35.3939650  18.4101930  94.5174680  35.4561590  19.0389640  95.8932080
  20.9036330  17.2380830  87.7802690  21.6128030  16.8164050  87.2949970
  20.1876270  17.3056060  87.1486040  20.5510490  13.2920160  86.8205340
  21.2738620  13.8329100  87.1386560  20.8235010  13.0183580  85.9446880
  34.3602140  18.1612630  91.0876920  34.8561260  17.9283500  91.8725800
  34.1618210  17.3224470  90.6714560  35.7889300  16.7973580  93.6214600
  35.6788580  16.6429620  94.5596870  36.5496890  16.2694520  93.3790010
  36.6779570  14.6281500  86.8620740  37.6028880  14.4962680  86.6539030
  36.6555360  14.7074320  87.8157190  36.7518060  15.3992160  89.4877450
  35.9569560  15.3337280  90.0170360  36.9561340  16.3342800  89.4762800
  33.6936480  29.4383710  93.4815840  34.2895550  29.1168280  92.8050260
  33.9514630  28.9655530  94.2729110  33.1837990  13.7289040  95.9376280
  33.6246080  13.6734140  95.0897880  32.9145580  14.6447050  96.0086460
  35.0476560  13.3604280  93.9485100  34.9864960  12.4165500  93.8016120
  35.8268590  13.4684370  94.4938560  19.3529310  29.4996640  92.9109050
  19.1851350  28.8667320  93.6090940  18.4863820  29.7056040  92.5603240
  19.9757330  13.3313420  90.4140910  20.7336690  13.4442300  89.8404940
  19.5134500  14.1682620  90.3684340  26.5171140  15.4452690  93.4043220
  25.7045650  15.0709580  93.0639100  27.0212780  14.6897770  93.7064410
  31.0196120  12.1095140  94.6426290  31.6225490  12.6815350  95.1174810
  30.2789110  12.6734580  94.4200190  34.1630720  12.5116700  89.9166570
  34.3581350  13.4100150  90.1834000  33.3760590  12.2803780  90.4099520
  20.9592010  28.1929870  90.3559190  20.4339630  28.5737900  89.6521150
  20.8836590  28.8180640  91.0768900  22.3482480  13.8577470  88.9542880
  22.8775240  13.0707270  88.8250830  22.9810800  14.5368660  89.1878410
  24.5420320  13.5952610  92.0088270  23.9123060  12.8939920  92.1758400
  24.0025460  14.3556740  91.7921430  35.7157330  29.7517410  91.6773130
  35.8909520  29.0655150  91.0334050  35.0178900  30.2764460  91.2849800
  23.5584980  30.1412250  89.2308440  24.2903800  29.8571530  88.6832330
  23.8178650  29.9025530  90.1207820  22.7199770  26.2576980  89.2354770
  22.0908650  26.7262080  89.7840600  22.8347600  25.4126200  89.6700960
  30.1749490  20.3082640  75.3855970  30.0943540  19.3937250  75.1147680
  29.7613910  20.8049710  74.6795680  28.3067530  22.0861660  77.2665240
  27.5309630  21.6062100  77.5563810  28.9580460  21.4067310  77.0921400
  22.3233360  22.3981470  78.1441000  21.4918240  22.1430180  78.5437510
  22.9314340  22.4692240  78.8798920  32.3274960  26.4921850  76.0464370
  31.8656490  25.7209090  76.3751540  33.1400510  26.5187920  76.5516820
  22.3034620  26.4321560  78.3399020  22.6062660  25.5419300  78.1609240
  23.0478210  26.9891780  78.1121270  20.7325310  17.3583360  71.9283390
  19.8442010  17.6999330  71.8263270  21.0166500  17.1583680  71.0364220
  18.6958320  19.9589010  77.8123090  19.2674430  19.1911210  77.8126730
  18.6959860  20.2577770  76.9029700  28.5538270  28.7779860  75.6668360
  27.9349710  29.2337360  75.0962800  29.4090050  28.9331320  75.2658060
  27.7476520  24.7618850  77.2735400  27.6784800  23.8208790  77.1124530
  28.5096380  24.8520260  77.8457970  19.9383190  15.3673370  79.5992020
  19.7586030  14.4699120  79.8794780  19.5363270  15.9145240  80.2738970
  28.7781690  17.5689230  77.5004330  29.1546510  16.6961110  77.3878000
  28.6801200  17.9047930  76.6094770  22.9086700  15.9414860  72.9621770
  23.0153450  16.8418590  73.2690530  21.9979060  15.8932830  72.6716420
  32.5605810  15.0639670  74.4332670  33.3815430  14.5736240  74.4758150
  32.5939890  15.6537330  75.1864510  20.5569860  17.8633870  78.2074360
  21.2379970  18.1272240  78.8261760  20.2417910  17.0234740  78.5412370
  24.7494430  18.9101230  77.2946950  25.2572650  19.4082200  77.9351970
  25.2807670  18.1336430  77.1186310  36.8505360  17.0806420  80.9976300
  36.1457530  17.4688130  80.4791410  37.1163280  17.7756710  81.5997230
  23.0330530  13.5499790  81.5610370  23.0348970  14.0672180  80.7556270
  22.2034840  13.0729970  81.5380300  29.4201620  23.6619100  73.0600270
  28.8018890  24.1268550  72.4962990  29.9324870  24.3546580  73.4769780
  24.2833380  23.1894970  79.7383870  23.9502760  23.8163890  80.3804940
  24.4600060  23.7156850  78.9585540  32.7967290  17.0040050  77.2060210
  32.0922860  17.2924940  77.7863320  33.1579450  17.8140160  76.8459770
  22.7145860  15.2609750  79.5680820  23.0562670  16.1051800  79.2734690
  21.7761670  15.4093490  79.6846160  23.4952480  25.1575770  81.5533050
  24.1126480  25.8326850  81.2717500  22.6345600  25.5663750  81.4620550
  18.7884820  24.3475630  70.4339900  18.4112800  24.8362730  69.7024800
  19.0457890  25.0200910  71.0646430  34.4130070  26.6215180  79.4687690
  33.7293590  27.2914290  79.4604360  34.9524360  26.8195830  78.7032550
  35.8654210  16.4494840  77.5969420  34.9179120  16.4833820  77.7284850
  36.1904200  17.2633790  77.9818780  26.3973750  12.7492020  75.8925410
  26.7048730  12.1938910  75.1760910  25.4674450  12.8836480  75.7098400
  31.9488810  28.4659310  78.1832870  31.9615970  28.0621600  77.3155130
  31.3964030  29.2406600  78.0794300  33.2434230  25.1875530  73.2723040
  33.1330560  24.2449860  73.3972460  33.2402480  25.5491170  74.1585800
  31.3474250  23.3689150  79.5115480  31.7643040  23.1549260  78.6768940
  32.0714070  23.6261940  80.0824100  28.7854510  20.8140850  72.6285530
  27.8583790  20.7478230  72.8574000  28.9379330  21.7520980  72.5140770
  28.7723590  17.0857850  69.6252690  27.8327260  17.2471810  69.7105150
  29.0906850  17.8043530  69.0788680  35.2936350  21.7676370  79.6031720
  34.4654980  21.8369460  79.1281850  35.8886830  22.3530680  79.1347550
  32.8151800  22.3761150  73.1320780  32.1964220  22.0380700  72.4847080
  32.7976250  21.7320910  73.8399970  32.2578360  18.5545690  80.5486590
  31.8449540  19.3799400  80.8026580  31.5254310  17.9690730  80.3562950
  24.3911150  21.3405590  75.4105260  23.9868150  20.6282840  74.9151160
  24.4774270  20.9958830  76.2993300  24.8592850  25.0273150  77.5744470
  24.5621140  24.4218620  76.8952250  25.8092670  25.0650460  77.4633830
  23.1039770  18.1148800  79.1904300  23.6554360  18.2244140  78.4157550
  23.6183280  18.4886400  79.9059530  32.9478460  28.6005020  81.2367570
  32.4709020  29.4077210  81.0440180  32.2640250  27.9483350  81.3893780
  23.9511280  24.7654840  84.2252270  23.0539810  24.9894810  84.4725670
  23.9764150  24.8889780  83.2763670  30.9916500  21.6147960  70.1393530
  31.4309780  20.7770390  69.9931350  31.7044920  22.2477360  70.2257670
  22.7782500  21.6368160  82.8009640  22.6390270  22.5090960  83.1697040
  21.8963860  21.2940970  82.6557580  29.1011880  26.5544030  74.1074770
  29.5407790  27.2968360  73.6930160  29.0398770  26.7970600  75.0313730
  24.5762850  27.5789860  85.0094790  24.5478280  27.9832810  84.1423220
  24.4127820  26.6500220  84.8466390  34.5733640  12.8690770  68.4534570
  34.2606300  12.9617600  69.3533640  35.3346110  13.4471800  68.4032000
  21.0915780  20.2350570  72.9111910  20.9713380  20.9612660  72.2993180
  20.7816670  19.4653480  72.4339820  36.5277670  28.3616960  86.3058960
  37.0037390  28.8399850  86.9848040  37.1484830  28.2934450  85.5804460
  18.7301150  23.4065710  78.7180550  18.8081570  23.5414480  77.7736270
  19.3442830  22.6981600  78.9108670  19.9748780  25.1065900  75.1286730
  19.5676860  25.2480490  74.2740330  20.8661790  24.8226060  74.9257940
  35.9310920  25.5529810  83.4658970  36.0573980  25.3141690  82.5476150
  35.9732300  24.7214350  83.9381050  29.7927660  29.2557810  82.0353780
  30.3072330  29.1665820  82.8376210  28.9496740  29.6017510  82.3281690
  31.7682060  29.5413150  71.4637780  31.6083200  29.2516090  72.3619610
  31.6028770  28.7653280  70.9283010  24.2470440  29.3211680  73.2409400
  24.0712920  28.4047220  73.0277200  23.3926180  29.6798970  73.4807200
  31.4708190  27.0500710  70.0235780  30.7773350  27.0478000  69.3638060
  32.2131050  26.6260030  69.5929950  31.0358120  28.6763420  74.0984270
  31.4915070  27.8952800  74.4122890  31.3750640  29.3870240  74.6425450
  35.7834930  17.6062270  84.4308710  35.1679200  18.1141940  83.9024170
  35.4631350  16.7060600  84.3734650  18.7860670  24.4479880  81.2575010
  18.9491710  23.9785240  80.4394380  19.2513120  23.9403440  81.9223850
  23.5579440  13.5785640  76.2935580  23.1147590  14.3595180  75.9620100
  24.1164430  13.9015530  77.0006520  27.8449250  16.4454160  81.8970900
  27.3828620  16.6537180  82.7090840  27.4427360  15.6313510  81.5941570
  32.8453760  17.6663110  83.0267560  31.9947350  17.3668860  83.3476630
  32.6855550  17.9105120  82.1151380  29.9403470  19.1664860  85.1266350
  30.2656880  18.3328610  84.7868580  30.7283800  19.6893380  85.2744680
  26.6738260  13.1996340  71.1741410  26.0492440  13.1956210  71.8994720
  26.5868380  12.3327300  70.7777380  25.5955340  14.1232970  78.1525180
  25.8927670  15.0295800  78.0717200  26.1440900  13.6351750  77.5384750
  23.3493660  18.7019210  74.0216830  23.1234580  18.4856380  74.9263450
  22.5686190  19.1347670  73.6762800  30.5791420  18.7082580  72.6207480
  29.9800310  19.4318380  72.4371100  31.1271030  18.6459360  71.8383930
  25.7892870  19.6004790  84.6877100  25.6936470  18.6599520  84.5377500
  26.6324850  19.8219860  84.2925170  29.1856290  17.3446120  74.6510760
  29.5785860  17.6618320  73.8379450  29.5473140  16.4658000  74.7655280
  20.9203410  16.0118460  82.8410880  20.5266800  16.8593670  83.0483660
  20.2321810  15.3744830  83.0319520  27.4948460  16.0953430  85.9107620
  26.8046780  15.9025630  86.5453710  28.2380760  16.3788070  86.4431920
  18.2220460  13.9346920  76.8740960  17.9333510  14.5049780  77.5865940
  18.9666220  13.4551370  77.2372190  18.4090690  17.8767040  68.0843680
  18.3265360  18.8197800  68.2258670  18.0573750  17.7341950  67.2056030
  29.7711430  19.9351870  78.7461540  29.0392550  20.4438680  79.0951640
  29.3735770  19.1181850  78.4450320  26.2088820  16.6106070  77.1514030
  26.2124880  16.1696020  76.3018570  27.1039940  16.9323400  77.2585850
  22.0591200  16.4932560  76.1108240  21.7191250  16.9707790  76.8675290
  21.2968520  16.0397680  75.7509340  26.2708970  17.6118150  70.1420790
  26.3921790  17.5704630  71.0906610  25.8857480  18.4742300  69.9867520
  30.2337340  15.3885550  78.1584480  30.2510080  15.8394200  79.0026330
  29.9852920  14.4891190  78.3717920  25.2830470  19.9219290  69.5404090
  24.7147370  19.4737540  68.9140000  25.9919470  20.2812070  69.0069240
  33.6608090  12.8017730  83.9970860  33.9853860  12.0707390  84.5228840
  33.6964600  12.4831370  83.0951850  20.3599650  23.8231310  83.4170820
  19.9754440  23.1824980  84.0153780  20.6711840  24.5267430  83.9865550
  26.5096790  20.6707850  78.8979440  26.8766920  20.1966420  79.6440780
  26.3201850  21.5449420  79.2387780  19.3737280  15.4151540  75.0272910
  19.0884200  15.0507210  75.8651530  19.3116140  14.6832000  74.4136050
  24.2996160  19.7116490  81.2163650  23.9953230  20.5908470  81.4414010
  25.2542620  19.7716280  81.2521090  22.8277950  23.9177480  71.8130500
  22.0540210  23.3775100  71.6529220  23.5572580  23.3984090  71.4748260
  33.5865930  22.9142840  77.6056890  34.3065050  23.4098130  77.2153000
  33.3847750  22.2360730  76.9610760  29.0475870  14.3080800  71.7486280
  28.2340480  13.8093970  71.6731590  28.8537820  15.1479050  71.3322630
  28.9684730  22.9851900  83.4925890  28.9022040  22.0647570  83.2383480
  28.3389870  23.0827340  84.2070530  31.7624260  18.6800450  70.0448440
  32.6503880  18.9917680  69.8699780  31.7329350  17.8072700  69.6529020
  22.8715350  23.5857860  75.4509310  23.3894020  22.7826120  75.3966200
  22.4199370  23.5237000  76.2926140  27.7584850  24.8524140  70.7236610
  28.1000550  25.5966370  70.2279930  26.9297560  25.1655260  71.0861440
  20.3559890  20.5519230  82.3635010  19.9974830  21.2173080  82.9508350
  20.0614450  19.7202780  82.7347630  23.5573010  21.0103470  85.2474560
  23.2573150  21.1560650  84.3502380  24.3284250  20.4508760  85.1547950
  28.9001460  25.8072470  83.2429690  28.9146000  24.8753430  83.0248600
  28.1926560  25.8932230  83.8819460  34.0338530  19.9912290  69.5128300
  33.9502250  20.4226510  68.6624740  34.7532720  20.4510640  69.9455120
  35.1112670  22.4479810  82.5898270  34.3860860  23.0408590  82.3927660
  35.6388130  22.4403350  81.7911640  35.0625780  26.8454550  72.2410430
  34.4201940  26.1910170  72.5154150  34.6756440  27.2509640  71.4651100
  30.6412260  24.1739980  76.0882120  30.9936080  23.5768110  75.4283490
  29.7574590  23.8484210  76.2590370  26.7275540  24.9337670  73.4952530
  27.4146670  25.4806880  73.8760120  25.9407960  25.4778400  73.5302140
  18.8667940  20.5510490  68.9869610  19.7362790  20.8335290  69.2705530
  18.3758260  21.3646360  68.8718420  26.0302750  21.9383700  73.1077890
  26.4865530  22.7488950  73.3338080  25.6790960  21.6206840  73.9396380
  28.3335360  27.4490040  80.3370190  28.9777580  27.6549420  81.0143610
  28.6964800  26.6878440  79.8841040  21.9314530  12.2821350  73.5800410
  21.8029160  12.2739250  74.5285330  21.1076550  12.6204440  73.2291420
  29.6067440  25.4522390  79.0547640  30.2489670  24.7515550  79.1679810
  30.1316790  26.2320830  78.8744530  33.4523160  25.7371010  68.7786780
  33.2260740  25.0201450  69.3711420  33.0619360  25.4883450  67.9408530
  31.3805060  26.2517290  82.2583700  31.7161300  26.8383980  82.9361620
  30.4605400  26.1210000  82.4881490  19.2339190  29.7637870  69.5531240
  19.5936830  30.3627210  68.8988510  19.0931530  30.3097760  70.3266270
  18.9308460  14.0412470  83.0407110  18.2166980  14.2409390  83.6459720
  19.3503500  13.2652040  83.4121910  33.0339410  23.6542950  70.4400940
  32.7461110  24.1155640  71.2278820  33.8291580  23.1940720  70.7085160
  19.2181050  28.0292730  84.0273640  19.3272170  27.0887470  83.8869030
  18.5661610  28.2947480  83.3787370  27.2093640  26.3008620  85.4271760
  26.8890510  25.5817860  85.9717450  26.5352000  26.9763690  85.5007820
  25.2507810  27.1469070  70.3704910  25.2417910  27.8798760  69.7549420
  24.3306170  26.9000650  70.4631870  20.8514450  22.3683960  71.1151670
  20.2442400  23.1082860  71.1246970  21.3263800  22.4583320  70.2889870
  30.4247240  16.5334780  80.7908560  30.7928060  15.7129990  81.1188130
  29.5645440  16.5936670  81.2064210  33.7909270  15.4891720  71.5996120
  33.1622430  15.5937390  70.8854350  33.2961190  15.7088500  72.3890000
  28.2367410  27.2097310  69.0330100  28.3379390  27.0061300  68.1032080
  27.3369150  26.9555590  69.2377880  25.7593300  17.7677670  73.0154000
  25.0509450  18.2364010  73.4567610  26.0437780  17.1099680  73.6499190
  27.3849230  19.1874370  81.0146530  27.8834480  19.6620190  81.6798380
  27.5272180  18.2637890  81.2216560  29.7908730  14.4928330  74.4549790
  29.6676510  14.5114460  73.5059300  30.7393290  14.5407270  74.5748190
  26.8785520  29.7283630  73.7277770  27.1327020  29.6905020  72.8057140
  25.9298000  29.6016960  73.7206020  23.9628320  16.0762750  70.3904710
  24.8118850  16.5132900  70.3244900  23.5959590  16.3883010  71.2176770
  34.5916090  15.4042330  81.8574920  34.0889690  16.1447730  82.1968730
  35.4072750  15.7926330  81.5411710  32.8838100  20.6475510  75.3036280
  31.9428240  20.6625740  75.4783970  33.1982170  19.8611470  75.7496580
  22.8619740  22.3295110  68.8640240  23.6283010  22.2176470  69.4265670
  22.9394430  21.6333080  68.2117010  21.5566500  19.7620180  69.5473130
  21.6370090  18.8147690  69.6590530  22.4486250  20.0927060  69.6533790
  34.8863680  27.8184360  76.9790540  35.0111100  28.6415530  77.4514350
  35.7529240  27.6075090  76.6314690  22.3581210  29.9115570  76.6507670
  23.0943690  29.3631030  76.9216240  22.7422130  30.7771580  76.5113660
  19.2426690  25.9789140  72.5249180  18.3166470  26.2210280  72.5154590
  19.7083120  26.8063400  72.4033930  21.3639490  29.0961640  85.8393250
  22.1652220  29.4173690  86.2528650  20.8491310  28.7357220  86.5613160
  25.4683520  29.0845880  68.4733240  26.2612130  29.3734710  68.0215030
  24.9487870  28.6538050  67.7945720  30.2004120  25.2041510  85.7868660
  29.5942280  25.2273110  85.0464410  29.8958230  24.4724550  86.3235910
  31.6304490  28.9321800  84.3978070  32.5826240  28.8479820  84.3478310
  31.4832710  29.5963510  85.0711860  34.5213690  28.3116010  69.8969980
  34.2355200  27.8981150  69.0824160  34.3233240  29.2403720  69.7770500
  19.0837300  21.5835100  84.7829300  19.5876320  21.0042380  85.3545530
  18.3444720  21.8675330  85.3205670  25.9860920  24.3049290  68.3375590
  25.8811560  23.6901640  69.0636970  25.8185140  23.7815180  67.5538600
  26.1375240  22.9906090  84.3164820  25.3720910  23.5591090  84.2319490
  26.3191200  22.6982300  83.4233050  29.2263650  23.3669320  68.9417580
  28.6773750  23.8138620  69.5860320  29.8482910  22.8618570  69.4655250
  33.2798590  24.7211420  84.8739840  34.0208060  25.0587180  84.3707300
  32.5171270  24.8903480  84.3209610  21.1160380  19.7264690  85.6779370
  21.1565720  19.4278560  86.5864600  21.9705880  20.1272300  85.5186890
  24.8938770  22.3260240  70.8382880  25.3155190  22.1600110  71.6814270
  25.0189610  21.5160470  70.3438020  23.0566190  18.3056790  83.6453860
  22.5262650  17.8147740  83.0177200  23.7254260  18.7340990  83.1111790
  27.4066410  21.3497850  68.0859980  27.9272070  20.6346870  67.7201130
  28.0534810  21.9883720  68.3860490  31.9544250  22.7726250  83.4095050
  32.3685270  22.9271330  84.2585470  31.0195250  22.8981470  83.5720830
  32.4266420  20.1122410  85.4134200  33.0087190  19.3574730  85.3254680
  32.6028190  20.6429850  84.6365680  23.5438490  15.2719160  83.7251150
  23.4495360  14.6539910  83.0002020  22.9635880  15.9985450  83.4981060
  26.3099930  13.8292400  80.7578540  25.8617230  13.8516660  79.9124090
  25.6765130  13.4311420  81.3548840  26.7159480  22.7246730  81.3790980
  27.1347590  23.5679460  81.2067220  25.7968110  22.8618770  81.1497760
  29.0523380  20.4562910  82.7628820  29.1719590  19.8604050  83.5023660
  29.9117380  20.4932600  82.3430120  31.3911280  21.0100100  81.3391330
  30.8646500  21.5342720  80.7356470  31.7342620  21.6427490  81.9701060
  23.7897670  18.3993470  67.7841040  23.5886730  17.5360830  68.1454380
  23.6189720  18.3126830  66.8462640  24.5666900  29.0299740  82.4948710
  24.0287990  29.7545800  82.1757410  24.8200860  28.5530080  81.7046050
  25.8192150  16.9984260  84.0204640  26.4091840  16.6900110  84.7082460
  25.0012390  16.5264010  84.1764540  30.6385580  16.6150070  84.2537660
  29.9501100  15.9531610  84.1887650  31.3591600  16.1688340  84.6986120
  31.2685980  13.2101700  70.3127920  31.5488270  12.3669600  70.6687340
  30.4951710  13.4424810  70.8266670  22.5880470  15.4994090  67.7718920
  22.8906370  15.5061520  66.8638070  23.3275060  15.1491950  68.2686580
  27.4229110  30.2650950  82.7535360  27.3487810  31.1686090  83.0607730
  26.5207950  29.9462850  82.7257430  25.8065400  14.4428710  68.7575120
  25.4587400  13.7652700  68.1777570  26.0078170  13.9818220  69.5718510
  27.9714440  29.4309460  70.3761720  28.8665230  29.7694430  70.3980480
  28.0032070  28.7088870  69.7486000  21.6110600  24.8036510  68.6048720
  22.0485470  25.3466180  69.2606300  22.0958330  23.9783460  68.6145060
  18.8256400  27.5925540  76.0568980  19.1559410  26.7246600  75.8247620
  19.2547400  27.7984060  76.8873940  23.4218320  25.9234550  73.7170950
  23.1213860  25.7999520  74.6174860  23.3155810  25.0643140  73.3086680
  19.3146610  28.4596130  78.7950610  18.8777600  28.6396930  79.6274760
  19.8824290  29.2170750  78.6532330  34.9508790  27.9613130  83.0827920
  34.3510780  28.0205690  82.3391840  35.0802690  27.0218110  83.2124770
  36.1910240  25.7030950  68.4197630  35.3603200  25.7707600  68.8904860
  36.3682070  26.5935070  68.1164490  35.6466700  22.4478430  70.9231830
  36.4085610  23.0175080  71.0291520  35.6621070  21.8805630  71.6940140
  19.1471040  20.9716360  75.1539490  18.4919880  20.7028000  74.5099190
  19.9848990  20.8620840  74.7041470  36.6526670  23.3028530  75.7673760
  37.0235500  22.5195850  75.3609730  37.2928600  23.9917630  75.5891060
  33.6360430  24.6865110  81.1804080  32.8220270  25.1162270  81.4429870
  34.0434630  25.2983520  80.5673130  35.6985870  22.7412800  68.0804350
  35.9734710  23.6491680  67.9523570  35.5096610  22.6775330  69.0166340
  32.0961480  15.7657650  69.3757980  32.5146360  15.5788630  68.5354640
  31.7897540  14.9136700  69.6860910  35.5951210  20.6781790  73.0733780
  35.2194810  19.9109720  72.6415070  34.8654330  21.0604490  73.5608710
  20.1846970  21.3568930  79.6942830  20.5520010  21.2696330  80.5738850
  19.6157790  20.5935480  79.5949690  34.9850830  19.8253310  82.7073300
  34.7536920  19.5966060  81.8071250  35.2455380  20.7452860  82.6618190
  19.7362970  18.2678020  83.6001250  18.8419020  18.2344780  83.9394960
  20.2760520  18.4664810  84.3652500  33.4238900  15.0509740  85.4853000
  34.3009080  15.0593140  85.8687000  33.4359740  14.3140580  84.8745350
  18.3609120  18.1815290  71.0964820  17.4573200  18.4445490  70.9216480
  18.8449740  18.4526460  70.3164780  34.8702170  18.9039280  76.3741020
  35.3939650  18.4101930  75.7431190  35.4561590  19.0389640  77.1188590
  35.0491890  18.9879150  79.8960570  34.0994600  18.9542690  80.0105560
  35.2304900  19.8979260  79.6610340  20.9036330  17.2380830  69.0059200
  21.6128030  16.8164050  68.5206480  20.1876270  17.3056060  68.3742550
  20.5510490  13.2920160  68.0461850  21.2738620  13.8329100  68.3643070
  20.8235010  13.0183580  67.1703390  34.3602140  18.1612630  72.3133430
  34.8561260  17.9283500  73.0982310  34.1618210  17.3224470  71.8971070
  20.2402680  12.5426350  77.9484470  20.8878870  11.9923730  77.5079630
  20.6604520  12.7969500  78.7700280  35.7889300  16.7973580  74.8471110
  35.6788580  16.6429620  75.7853380  36.5496890  16.2694520  74.6046520
  34.1355020  12.7367710  81.3054110  34.7727240  13.3501850  81.6713300
  34.2829910  12.7728370  80.3603340  36.6779570  14.6281500  68.0877250
  37.6028880  14.4962680  67.8795540  36.6555360  14.7074320  69.0413700
  36.7518060  15.3992160  70.7133960  35.9569560  15.3337280  71.2426870
  36.9561340  16.3342800  70.7019310  33.6936480  29.4383710  74.7072350
  34.2895550  29.1168280  74.0306770  33.9514630  28.9655530  75.4985620
  19.9934680  12.6982020  80.6909790  19.6449500  13.1545840  81.4567970
  19.6622380  11.8039150  80.7732220  21.5999050  25.8701620  84.8562980
  21.5568680  25.4994530  85.7377440  21.7310060  26.8079190  84.9964800
  25.3005080  27.4261210  80.4572700  25.0596440  27.6935770  79.5703220
  26.2407720  27.5966940  80.5123560  27.5059500  13.8893900  84.2129210
  27.4448390  14.4815730  84.9624620  28.4459880  13.7819860  84.0679470
  30.1434060  13.5463960  83.8521500  30.7574470  13.8643250  83.1902580
  30.6883620  13.0612550  84.4717360  36.5609240  29.4455590  81.2583340
  36.0667520  29.8424460  80.5410470  35.9522530  28.8204800  81.6520620
  20.6655320  12.2258220  83.9660560  21.2138310  12.0446270  83.2026670
  20.7310630  11.4352330  84.5016870  21.4387080  28.8163870  81.9760760
  20.8447400  28.6848570  82.7150800  21.4310920  27.9802010  81.5102860
  30.8842100  12.1096100  80.1790790  30.0101940  12.4431210  79.9763720
  30.7752850  11.6369280  81.0042660  31.7914080  14.3166970  81.5632510
  31.4627440  13.5018730  81.1834240  32.7396380  14.2736780  81.4398200
  34.2448690  30.0879010  78.5370080  33.7851660  30.8394820  78.1628100
  33.6161150  29.3685480  78.4784880  21.0699310  26.1822250  80.9268800
  20.3433370  25.5627540  80.8594750  21.1308460  26.5762860  80.0566880
  24.6744410  28.3967250  77.7118210  25.1909430  27.7854610  77.1866470
  25.3241790  28.8996030  78.2029220  27.4139910  29.2875740  78.5387190
  27.7017720  29.0330040  77.6620200  27.9263130  28.7353100  79.1292760
  28.6316920  13.0265940  79.1183700  27.8488710  13.5011440  79.3980460
  28.3379850  12.1220770  79.0096880  33.1837990  13.7289040  77.1632790
  33.6246080  13.6734140  76.3154390  32.9145580  14.6447050  77.2342970
  35.0476560  13.3604280  75.1741610  34.9864960  12.4165500  75.0272630
  35.8268590  13.4684370  75.7195070  19.3529310  29.4996640  74.1365560
  19.1851350  28.8667320  74.8347450  18.4863820  29.7056040  73.7859750
  19.9757330  13.3313420  71.6397420  20.7336690  13.4442300  71.0661450
  19.5134500  14.1682620  71.5940850  26.5171140  15.4452690  74.6299730
  25.7045650  15.0709580  74.2895610  27.0212780  14.6897770  74.9320920
  31.0196120  12.1095140  75.8682800  31.6225490  12.6815350  76.3431320
  30.2789110  12.6734580  75.6456700  34.1630720  12.5116700  71.1423080
  34.3581350  13.4100150  71.4090510  33.3760590  12.2803780  71.6356030
  20.9592010  28.1929870  71.5815700  20.4339630  28.5737900  70.8777660
  20.8836590  28.8180640  72.3025410  22.3482480  13.8577470  70.1799390
  22.8775240  13.0707270  70.0507340  22.9810800  14.5368660  70.4134920
  24.5420320  13.5952610  73.2344780  23.9123060  12.8939920  73.4014910
  24.0025460  14.3556740  73.0177940  27.4812270  30.2091840  85.9055390
  28.4079580  29.9736110  85.9491350  27.4662700  31.0363840  85.4241420
  35.7157330  29.7517410  72.9029640  35.8909520  29.0655150  72.2590560
  35.0178900  30.2764460  72.5106310  24.6675880  12.8736590  85.6697270
  24.3860150  13.3770190  84.9058090  25.0495580  12.0758340  85.3039400
  23.5584980  30.1412250  70.4564950  24.2903800  29.8571530  69.9088840
  23.8178650  29.9025530  71.3464330  22.7199770  26.2576980  70.4611280
  22.0908650  26.7262080  71.0097110  22.8347600  25.4126200  70.8957470
  31.2691340  12.2890170  86.2477740  31.1556790  12.6084780  87.1429260
  32.0861080  12.6902680  85.9515020  34.0489830  29.4361700  85.7296430
  34.8415150  28.9410930  85.5222390  34.3422980  30.1151840  86.3372040
  30.1749490  20.3082640  56.6112480  30.0943540  19.3937250  56.3404190
  29.7613910  20.8049710  55.9052190  28.3067530  22.0861660  58.4921750
  27.5309630  21.6062100  58.7820320  28.9580460  21.4067310  58.3177910
  22.3233360  22.3981470  59.3697510  21.4918240  22.1430180  59.7694020
  22.9314340  22.4692240  60.1055430  32.3274960  26.4921850  57.2720880
  31.8656490  25.7209090  57.6008050  33.1400510  26.5187920  57.7773330
  22.3034620  26.4321560  59.5655530  22.6062660  25.5419300  59.3865750
  23.0478210  26.9891780  59.3377780  20.7325310  17.3583360  53.1539900
  19.8442010  17.6999330  53.0519780  21.0166500  17.1583680  52.2620730
  18.6958320  19.9589010  59.0379600  19.2674430  19.1911210  59.0383240
  18.6959860  20.2577770  58.1286210  28.5538270  28.7779860  56.8924870
  27.9349710  29.2337360  56.3219310  29.4090050  28.9331320  56.4914570
  27.7476520  24.7618850  58.4991910  27.6784800  23.8208790  58.3381040
  28.5096380  24.8520260  59.0714480  19.9383190  15.3673370  60.8248530
  19.7586030  14.4699120  61.1051290  19.5363270  15.9145240  61.4995480
  28.7781690  17.5689230  58.7260840  29.1546510  16.6961110  58.6134510
  28.6801200  17.9047930  57.8351280  22.9086700  15.9414860  54.1878280
  23.0153450  16.8418590  54.4947040  21.9979060  15.8932830  53.8972930
  32.5605810  15.0639670  55.6589180  33.3815430  14.5736240  55.7014660
  32.5939890  15.6537330  56.4121020  20.5569860  17.8633870  59.4330870
  21.2379970  18.1272240  60.0518270  20.2417910  17.0234740  59.7668880
  24.7494430  18.9101230  58.5203460  25.2572650  19.4082200  59.1608480
  25.2807670  18.1336430  58.3442820  36.8505360  17.0806420  62.2232810
  36.1457530  17.4688130  61.7047920  37.1163280  17.7756710  62.8253740
  23.0330530  13.5499790  62.7866880  23.0348970  14.0672180  61.9812780
  22.2034840  13.0729970  62.7636810  29.4201620  23.6619100  54.2856780
  28.8018890  24.1268550  53.7219500  29.9324870  24.3546580  54.7026290
  24.2833380  23.1894970  60.9640380  23.9502760  23.8163890  61.6061450
  24.4600060  23.7156850  60.1842050  32.7967290  17.0040050  58.4316720
  32.0922860  17.2924940  59.0119830  33.1579450  17.8140160  58.0716280
  22.7145860  15.2609750  60.7937330  23.0562670  16.1051800  60.4991200
  21.7761670  15.4093490  60.9102670  23.4952480  25.1575770  62.7789560
  24.1126480  25.8326850  62.4974010  22.6345600  25.5663750  62.6877060
  18.7884820  24.3475630  51.6596410  18.4112800  24.8362730  50.9281310
  19.0457890  25.0200910  52.2902940  34.4130070  26.6215180  60.6944200
  33.7293590  27.2914290  60.6860870  34.9524360  26.8195830  59.9289060
  35.8654210  16.4494840  58.8225930  34.9179120  16.4833820  58.9541360
  36.1904200  17.2633790  59.2075290  26.3973750  12.7492020  57.1181920
  26.7048730  12.1938910  56.4017420  25.4674450  12.8836480  56.9354910
  31.9488810  28.4659310  59.4089380  31.9615970  28.0621600  58.5411640
  31.3964030  29.2406600  59.3050810  33.2434230  25.1875530  54.4979550
  33.1330560  24.2449860  54.6228970  33.2402480  25.5491170  55.3842310
  31.3474250  23.3689150  60.7371990  31.7643040  23.1549260  59.9025450
  32.0714070  23.6261940  61.3080610  28.7854510  20.8140850  53.8542040
  27.8583790  20.7478230  54.0830510  28.9379330  21.7520980  53.7397280
  28.7723590  17.0857850  50.8509200  27.8327260  17.2471810  50.9361660
  29.0906850  17.8043530  50.3045190  35.2936350  21.7676370  60.8288230
  34.4654980  21.8369460  60.3538360  35.8886830  22.3530680  60.3604060
  32.8151800  22.3761150  54.3577290  32.1964220  22.0380700  53.7103590
  32.7976250  21.7320910  55.0656480  32.2578360  18.5545690  61.7743100
  31.8449540  19.3799400  62.0283090  31.5254310  17.9690730  61.5819460
  24.3911150  21.3405590  56.6361770  23.9868150  20.6282840  56.1407670
  24.4774270  20.9958830  57.5249810  24.8592850  25.0273150  58.8000980
  24.5621140  24.4218620  58.1208760  25.8092670  25.0650460  58.6890340
  23.1039770  18.1148800  60.4160810  23.6554360  18.2244140  59.6414060
  23.6183280  18.4886400  61.1316040  32.9478460  28.6005020  62.4624080
  32.4709020  29.4077210  62.2696690  32.2640250  27.9483350  62.6150290
  23.9511280  24.7654840  65.4508780  23.0539810  24.9894810  65.6982180
  23.9764150  24.8889780  64.5020180  30.9916500  21.6147960  51.3650040
  31.4309780  20.7770390  51.2187860  31.7044920  22.2477360  51.4514180
  22.7782500  21.6368160  64.0266150  22.6390270  22.5090960  64.3953550
  21.8963860  21.2940970  63.8814090  29.1011880  26.5544030  55.3331280
  29.5407790  27.2968360  54.9186670  29.0398770  26.7970600  56.2570240
  24.5762850  27.5789860  66.2351300  24.5478280  27.9832810  65.3679730
  24.4127820  26.6500220  66.0722900  34.5733640  12.8690770  49.6791080
  34.2606300  12.9617600  50.5790150  35.3346110  13.4471800  49.6288510
  21.0915780  20.2350570  54.1368420  20.9713380  20.9612660  53.5249690
  20.7816670  19.4653480  53.6596330  36.5277670  28.3616960  67.5315470
  37.0037390  28.8399850  68.2104550  37.1484830  28.2934450  66.8060970
  18.7301150  23.4065710  59.9437060  18.8081570  23.5414480  58.9992780
  19.3442830  22.6981600  60.1365180  19.9748780  25.1065900  56.3543240
  19.5676860  25.2480490  55.4996840  20.8661790  24.8226060  56.1514450
  35.9310920  25.5529810  64.6915480  36.0573980  25.3141690  63.7732660
  35.9732300  24.7214350  65.1637560  29.7927660  29.2557810  63.2610290
  30.3072330  29.1665820  64.0632720  28.9496740  29.6017510  63.5538200
  31.7682060  29.5413150  52.6894290  31.6083200  29.2516090  53.5876120
  31.6028770  28.7653280  52.1539520  24.2470440  29.3211680  54.4665910
  24.0712920  28.4047220  54.2533710  23.3926180  29.6798970  54.7063710
  31.4708190  27.0500710  51.2492290  30.7773350  27.0478000  50.5894570
  32.2131050  26.6260030  50.8186460  31.0358120  28.6763420  55.3240780
  31.4915070  27.8952800  55.6379400  31.3750640  29.3870240  55.8681960
  35.7834930  17.6062270  65.6565220  35.1679200  18.1141940  65.1280680
  35.4631350  16.7060600  65.5991160  18.7860670  24.4479880  62.4831520
  18.9491710  23.9785240  61.6650890  19.2513120  23.9403440  63.1480360
  23.5579440  13.5785640  57.5192090  23.1147590  14.3595180  57.1876610
  24.1164430  13.9015530  58.2263030  27.8449250  16.4454160  63.1227410
  27.3828620  16.6537180  63.9347350  27.4427360  15.6313510  62.8198080
  32.8453760  17.6663110  64.2524070  31.9947350  17.3668860  64.5733140
  32.6855550  17.9105120  63.3407890  29.9403470  19.1664860  66.3522860
  30.2656880  18.3328610  66.0125090  30.7283800  19.6893380  66.5001190
  26.6738260  13.1996340  52.3997920  26.0492440  13.1956210  53.1251230
  26.5868380  12.3327300  52.0033890  25.5955340  14.1232970  59.3781690
  25.8927670  15.0295800  59.2973710  26.1440900  13.6351750  58.7641260
  23.3493660  18.7019210  55.2473340  23.1234580  18.4856380  56.1519960
  22.5686190  19.1347670  54.9019310  30.5791420  18.7082580  53.8463990
  29.9800310  19.4318380  53.6627610  31.1271030  18.6459360  53.0640440
  25.7892870  19.6004790  65.9133610  25.6936470  18.6599520  65.7634010
  26.6324850  19.8219860  65.5181680  29.1856290  17.3446120  55.8767270
  29.5785860  17.6618320  55.0635960  29.5473140  16.4658000  55.9911790
  20.9203410  16.0118460  64.0667390  20.5266800  16.8593670  64.2740170
  20.2321810  15.3744830  64.2576030  27.4948460  16.0953430  67.1364130
  26.8046780  15.9025630  67.7710220  28.2380760  16.3788070  67.6688430
  18.2220460  13.9346920  58.0997470  17.9333510  14.5049780  58.8122450
  18.9666220  13.4551370  58.4628700  18.4090690  17.8767040  49.3100190
  18.3265360  18.8197800  49.4515180  18.0573750  17.7341950  48.4312540
  29.7711430  19.9351870  59.9718050  29.0392550  20.4438680  60.3208150
  29.3735770  19.1181850  59.6706830  26.2088820  16.6106070  58.3770540
  26.2124880  16.1696020  57.5275080  27.1039940  16.9323400  58.4842360
  22.0591200  16.4932560  57.3364750  21.7191250  16.9707790  58.0931800
  21.2968520  16.0397680  56.9765850  26.2708970  17.6118150  51.3677300
  26.3921790  17.5704630  52.3163120  25.8857480  18.4742300  51.2124030
  30.2337340  15.3885550  59.3840990  30.2510080  15.8394200  60.2282840
  29.9852920  14.4891190  59.5974430  25.2830470  19.9219290  50.7660600
  24.7147370  19.4737540  50.1396510  25.9919470  20.2812070  50.2325750
  33.6608090  12.8017730  65.2227370  33.9853860  12.0707390  65.7485350
  33.6964600  12.4831370  64.3208360  20.3599650  23.8231310  64.6427330
  19.9754440  23.1824980  65.2410290  20.6711840  24.5267430  65.2122060
  26.5096790  20.6707850  60.1235950  26.8766920  20.1966420  60.8697290
  26.3201850  21.5449420  60.4644290  19.3737280  15.4151540  56.2529420
  19.0884200  15.0507210  57.0908040  19.3116140  14.6832000  55.6392560
  24.2996160  19.7116490  62.4420160  23.9953230  20.5908470  62.6670520
  25.2542620  19.7716280  62.4777600  22.8277950  23.9177480  53.0387010
  22.0540210  23.3775100  52.8785730  23.5572580  23.3984090  52.7004770
  33.5865930  22.9142840  58.8313400  34.3065050  23.4098130  58.4409510
  33.3847750  22.2360730  58.1867270  29.0475870  14.3080800  52.9742790
  28.2340480  13.8093970  52.8988100  28.8537820  15.1479050  52.5579140
  28.9684730  22.9851900  64.7182400  28.9022040  22.0647570  64.4639990
  28.3389870  23.0827340  65.4327040  31.7624260  18.6800450  51.2704950
  32.6503880  18.9917680  51.0956290  31.7329350  17.8072700  50.8785530
  22.8715350  23.5857860  56.6765820  23.3894020  22.7826120  56.6222710
  22.4199370  23.5237000  57.5182650  27.7584850  24.8524140  51.9493120
  28.1000550  25.5966370  51.4536440  26.9297560  25.1655260  52.3117950
  20.3559890  20.5519230  63.5891520  19.9974830  21.2173080  64.1764860
  20.0614450  19.7202780  63.9604140  23.5573010  21.0103470  66.4731070
  23.2573150  21.1560650  65.5758890  24.3284250  20.4508760  66.3804460
  28.9001460  25.8072470  64.4686200  28.9146000  24.8753430  64.2505110
  28.1926560  25.8932230  65.1075970  34.0338530  19.9912290  50.7384810
  33.9502250  20.4226510  49.8881250  34.7532720  20.4510640  51.1711630
  35.1112670  22.4479810  63.8154780  34.3860860  23.0408590  63.6184170
  35.6388130  22.4403350  63.0168150  35.0625780  26.8454550  53.4666940
  34.4201940  26.1910170  53.7410660  34.6756440  27.2509640  52.6907610
  30.6412260  24.1739980  57.3138630  30.9936080  23.5768110  56.6540000
  29.7574590  23.8484210  57.4846880  26.7275540  24.9337670  54.7209040
  27.4146670  25.4806880  55.1016630  25.9407960  25.4778400  54.7558650
  18.8667940  20.5510490  50.2126120  19.7362790  20.8335290  50.4962040
  18.3758260  21.3646360  50.0974930  26.0302750  21.9383700  54.3334400
  26.4865530  22.7488950  54.5594590  25.6790960  21.6206840  55.1652890
  28.3335360  27.4490040  61.5626700  28.9777580  27.6549420  62.2400120
  28.6964800  26.6878440  61.1097550  21.9314530  12.2821350  54.8056920
  21.8029160  12.2739250  55.7541840  21.1076550  12.6204440  54.4547930
  29.6067440  25.4522390  60.2804150  30.2489670  24.7515550  60.3936320
  30.1316790  26.2320830  60.1001040  33.4523160  25.7371010  50.0043290
  33.2260740  25.0201450  50.5967930  33.0619360  25.4883450  49.1665040
  31.3805060  26.2517290  63.4840210  31.7161300  26.8383980  64.1618130
  30.4605400  26.1210000  63.7138000  19.2339190  29.7637870  50.7787750
  19.5936830  30.3627210  50.1245020  19.0931530  30.3097760  51.5522780
  18.9308460  14.0412470  64.2663620  18.2166980  14.2409390  64.8716230
  19.3503500  13.2652040  64.6378420  33.0339410  23.6542950  51.6657450
  32.7461110  24.1155640  52.4535330  33.8291580  23.1940720  51.9341670
  19.2181050  28.0292730  65.2530150  19.3272170  27.0887470  65.1125540
  18.5661610  28.2947480  64.6043880  27.2093640  26.3008620  66.6528270
  26.8890510  25.5817860  67.1973960  26.5352000  26.9763690  66.7264330
  25.2507810  27.1469070  51.5961420  25.2417910  27.8798760  50.9805930
  24.3306170  26.9000650  51.6888380  20.8514450  22.3683960  52.3408180
  20.2442400  23.1082860  52.3503480  21.3263800  22.4583320  51.5146380
  30.4247240  16.5334780  62.0165070  30.7928060  15.7129990  62.3444640
  29.5645440  16.5936670  62.4320720  33.7909270  15.4891720  52.8252630
  33.1622430  15.5937390  52.1110860  33.2961190  15.7088500  53.6146510
  28.2367410  27.2097310  50.2586610  28.3379390  27.0061300  49.3288590
  27.3369150  26.9555590  50.4634390  25.7593300  17.7677670  54.2410510
  25.0509450  18.2364010  54.6824120  26.0437780  17.1099680  54.8755700
  27.3849230  19.1874370  62.2403040  27.8834480  19.6620190  62.9054890
  27.5272180  18.2637890  62.4473070  29.7908730  14.4928330  55.6806300
  29.6676510  14.5114460  54.7315810  30.7393290  14.5407270  55.8004700
  26.8785520  29.7283630  54.9534280  27.1327020  29.6905020  54.0313650
  25.9298000  29.6016960  54.9462530  23.9628320  16.0762750  51.6161220
  24.8118850  16.5132900  51.5501410  23.5959590  16.3883010  52.4433280
  34.5916090  15.4042330  63.0831430  34.0889690  16.1447730  63.4225240
  35.4072750  15.7926330  62.7668220  32.8838100  20.6475510  56.5292790
  31.9428240  20.6625740  56.7040480  33.1982170  19.8611470  56.9753090
  22.8619740  22.3295110  50.0896750  23.6283010  22.2176470  50.6522180
  22.9394430  21.6333080  49.4373520  21.5566500  19.7620180  50.7729640
  21.6370090  18.8147690  50.8847040  22.4486250  20.0927060  50.8790300
  34.8863680  27.8184360  58.2047050  35.0111100  28.6415530  58.6770860
  35.7529240  27.6075090  57.8571200  22.3581210  29.9115570  57.8764180
  23.0943690  29.3631030  58.1472750  22.7422130  30.7771580  57.7370170
  19.2426690  25.9789140  53.7505690  18.3166470  26.2210280  53.7411100
  19.7083120  26.8063400  53.6290440  21.3639490  29.0961640  67.0649760
  22.1652220  29.4173690  67.4785160  20.8491310  28.7357220  67.7869670
  25.4683520  29.0845880  49.6989750  26.2612130  29.3734710  49.2471540
  24.9487870  28.6538050  49.0202230  30.2004120  25.2041510  67.0125170
  29.5942280  25.2273110  66.2720920  29.8958230  24.4724550  67.5492420
  31.6304490  28.9321800  65.6234580  32.5826240  28.8479820  65.5734820
  31.4832710  29.5963510  66.2968370  34.5213690  28.3116010  51.1226490
  34.2355200  27.8981150  50.3080670  34.3233240  29.2403720  51.0027010
  19.0837300  21.5835100  66.0085810  19.5876320  21.0042380  66.5802040
  18.3444720  21.8675330  66.5462180  25.9860920  24.3049290  49.5632100
  25.8811560  23.6901640  50.2893480  25.8185140  23.7815180  48.7795110
  26.1375240  22.9906090  65.5421330  25.3720910  23.5591090  65.4576000
  26.3191200  22.6982300  64.6489560  29.2263650  23.3669320  50.1674090
  28.6773750  23.8138620  50.8116830  29.8482910  22.8618570  50.6911760
  33.2798590  24.7211420  66.0996350  34.0208060  25.0587180  65.5963810
  32.5171270  24.8903480  65.5466120  21.1160380  19.7264690  66.9035880
  21.1565720  19.4278560  67.8121110  21.9705880  20.1272300  66.7443400
  24.8938770  22.3260240  52.0639390  25.3155190  22.1600110  52.9070780
  25.0189610  21.5160470  51.5694530  23.0566190  18.3056790  64.8710370
  22.5262650  17.8147740  64.2433710  23.7254260  18.7340990  64.3368300
  27.4066410  21.3497850  49.3116490  27.9272070  20.6346870  48.9457640
  28.0534810  21.9883720  49.6117000  31.9544250  22.7726250  64.6351560
  32.3685270  22.9271330  65.4841980  31.0195250  22.8981470  64.7977340
  32.4266420  20.1122410  66.6390710  33.0087190  19.3574730  66.5511190
  32.6028190  20.6429850  65.8622190  23.5438490  15.2719160  64.9507660
  23.4495360  14.6539910  64.2258530  22.9635880  15.9985450  64.7237570
  26.3099930  13.8292400  61.9835050  25.8617230  13.8516660  61.1380600
  25.6765130  13.4311420  62.5805350  26.7159480  22.7246730  62.6047490
  27.1347590  23.5679460  62.4323730  25.7968110  22.8618770  62.3754270
  29.0523380  20.4562910  63.9885330  29.1719590  19.8604050  64.7280170
  29.9117380  20.4932600  63.5686630  31.3911280  21.0100100  62.5647840
  30.8646500  21.5342720  61.9612980  31.7342620  21.6427490  63.1957570
  23.7897670  18.3993470  49.0097550  23.5886730  17.5360830  49.3710890
  23.6189720  18.3126830  48.0719150  24.5666900  29.0299740  63.7205220
  24.0287990  29.7545800  63.4013920  24.8200860  28.5530080  62.9302560
  25.8192150  16.9984260  65.2461150  26.4091840  16.6900110  65.9338970
  25.0012390  16.5264010  65.4021050  30.6385580  16.6150070  65.4794170
  29.9501100  15.9531610  65.4144160  31.3591600  16.1688340  65.9242630
  31.2685980  13.2101700  51.5384430  31.5488270  12.3669600  51.8943850
  30.4951710  13.4424810  52.0523180  22.5880470  15.4994090  48.9975430
  22.8906370  15.5061520  48.0894580  23.3275060  15.1491950  49.4943090
  27.4229110  30.2650950  63.9791870  27.3487810  31.1686090  64.2864240
  26.5207950  29.9462850  63.9513940  25.8065400  14.4428710  49.9831630
  25.4587400  13.7652700  49.4034080  26.0078170  13.9818220  50.7975020
  27.9714440  29.4309460  51.6018230  28.8665230  29.7694430  51.6236990
  28.0032070  28.7088870  50.9742510  21.6110600  24.8036510  49.8305230
  22.0485470  25.3466180  50.4862810  22.0958330  23.9783460  49.8401570
  18.8256400  27.5925540  57.2825490  19.1559410  26.7246600  57.0504130
  19.2547400  27.7984060  58.1130450  23.4218320  25.9234550  54.9427460
  23.1213860  25.7999520  55.8431370  23.3155810  25.0643140  54.5343190
  19.3146610  28.4596130  60.0207120  18.8777600  28.6396930  60.8531270
  19.8824290  29.2170750  59.8788840  34.9508790  27.9613130  64.3084430
  34.3510780  28.0205690  63.5648350  35.0802690  27.0218110  64.4381280
  36.1910240  25.7030950  49.6454140  35.3603200  25.7707600  50.1161370
  36.3682070  26.5935070  49.3421000  35.6466700  22.4478430  52.1488340
  36.4085610  23.0175080  52.2548030  35.6621070  21.8805630  52.9196650
  19.1471040  20.9716360  56.3796000  18.4919880  20.7028000  55.7355700
  19.9848990  20.8620840  55.9297980  36.6526670  23.3028530  56.9930270
  37.0235500  22.5195850  56.5866240  37.2928600  23.9917630  56.8147570
  33.6360430  24.6865110  62.4060590  32.8220270  25.1162270  62.6686380
  34.0434630  25.2983520  61.7929640  35.6985870  22.7412800  49.3060860
  35.9734710  23.6491680  49.1780080  35.5096610  22.6775330  50.2422850
  32.0961480  15.7657650  50.6014490  32.5146360  15.5788630  49.7611150
  31.7897540  14.9136700  50.9117420  35.5951210  20.6781790  54.2990290
  35.2194810  19.9109720  53.8671580  34.8654330  21.0604490  54.7865220
  20.1846970  21.3568930  60.9199340  20.5520010  21.2696330  61.7995360
  19.6157790  20.5935480  60.8206200  34.9850830  19.8253310  63.9329810
  34.7536920  19.5966060  63.0327760  35.2455380  20.7452860  63.8874700
  19.7362970  18.2678020  64.8257760  18.8419020  18.2344780  65.1651470
  20.2760520  18.4664810  65.5909010  33.4238900  15.0509740  66.7109510
  34.3009080  15.0593140  67.0943510  33.4359740  14.3140580  66.1001860
  18.3609120  18.1815290  52.3221330  17.4573200  18.4445490  52.1472990
  18.8449740  18.4526460  51.5421290  34.8702170  18.9039280  57.5997530
  35.3939650  18.4101930  56.9687700  35.4561590  19.0389640  58.3445100
  35.0491890  18.9879150  61.1217080  34.0994600  18.9542690  61.2362070
  35.2304900  19.8979260  60.8866850  20.9036330  17.2380830  50.2315710
  21.6128030  16.8164050  49.7462990  20.1876270  17.3056060  49.5999060
  20.5510490  13.2920160  49.2718360  21.2738620  13.8329100  49.5899580
  20.8235010  13.0183580  48.3959900  34.3602140  18.1612630  53.5389940
  34.8561260  17.9283500  54.3238820  34.1618210  17.3224470  53.1227580
  20.2402680  12.5426350  59.1740980  20.8878870  11.9923730  58.7336140
  20.6604520  12.7969500  59.9956790  35.7889300  16.7973580  56.0727620
  35.6788580  16.6429620  57.0109890  36.5496890  16.2694520  55.8303030
  34.1355020  12.7367710  62.5310620  34.7727240  13.3501850  62.8969810
  34.2829910  12.7728370  61.5859850  36.6779570  14.6281500  49.3133760
  37.6028880  14.4962680  49.1052050  36.6555360  14.7074320  50.2670210
  36.7518060  15.3992160  51.9390470  35.9569560  15.3337280  52.4683380
  36.9561340  16.3342800  51.9275820  33.6936480  29.4383710  55.9328860
  34.2895550  29.1168280  55.2563280  33.9514630  28.9655530  56.7242130
  19.9934680  12.6982020  61.9166300  19.6449500  13.1545840  62.6824480
  19.6622380  11.8039150  61.9988730  21.5999050  25.8701620  66.0819490
  21.5568680  25.4994530  66.9633950  21.7310060  26.8079190  66.2221310
  25.3005080  27.4261210  61.6829210  25.0596440  27.6935770  60.7959730
  26.2407720  27.5966940  61.7380070  27.5059500  13.8893900  65.4385720
  27.4448390  14.4815730  66.1881130  28.4459880  13.7819860  65.2935980
  30.1434060  13.5463960  65.0778010  30.7574470  13.8643250  64.4159090
  30.6883620  13.0612550  65.6973870  36.5609240  29.4455590  62.4839850
  36.0667520  29.8424460  61.7666980  35.9522530  28.8204800  62.8777130
  20.6655320  12.2258220  65.1917070  21.2138310  12.0446270  64.4283180
  20.7310630  11.4352330  65.7273380  21.4387080  28.8163870  63.2017270
  20.8447400  28.6848570  63.9407310  21.4310920  27.9802010  62.7359370
  30.8842100  12.1096100  61.4047300  30.0101940  12.4431210  61.2020230
  30.7752850  11.6369280  62.2299170  31.7914080  14.3166970  62.7889020
  31.4627440  13.5018730  62.4090750  32.7396380  14.2736780  62.6654710
  34.2448690  30.0879010  59.7626590  33.7851660  30.8394820  59.3884610
  33.6161150  29.3685480  59.7041390  21.0699310  26.1822250  62.1525310
  20.3433370  25.5627540  62.0851260  21.1308460  26.5762860  61.2823390
  24.6744410  28.3967250  58.9374720  25.1909430  27.7854610  58.4122980
  25.3241790  28.8996030  59.4285730  27.4139910  29.2875740  59.7643700
  27.7017720  29.0330040  58.8876710  27.9263130  28.7353100  60.3549270
  28.6316920  13.0265940  60.3440210  27.8488710  13.5011440  60.6236970
  28.3379850  12.1220770  60.2353390  33.1837990  13.7289040  58.3889300
  33.6246080  13.6734140  57.5410900  32.9145580  14.6447050  58.4599480
  35.0476560  13.3604280  56.3998120  34.9864960  12.4165500  56.2529140
  35.8268590  13.4684370  56.9451580  19.3529310  29.4996640  55.3622070
  19.1851350  28.8667320  56.0603960  18.4863820  29.7056040  55.0116260
  19.9757330  13.3313420  52.8653930  20.7336690  13.4442300  52.2917960
  19.5134500  14.1682620  52.8197360  26.5171140  15.4452690  55.8556240
  25.7045650  15.0709580  55.5152120  27.0212780  14.6897770  56.1577430
  31.0196120  12.1095140  57.0939310  31.6225490  12.6815350  57.5687830
  30.2789110  12.6734580  56.8713210  34.1630720  12.5116700  52.3679590
  34.3581350  13.4100150  52.6347020  33.3760590  12.2803780  52.8612540
  20.9592010  28.1929870  52.8072210  20.4339630  28.5737900  52.1034170
  20.8836590  28.8180640  53.5281920  22.3482480  13.8577470  51.4055900
  22.8775240  13.0707270  51.2763850  22.9810800  14.5368660  51.6391430
  24.5420320  13.5952610  54.4601290  23.9123060  12.8939920  54.6271420
  24.0025460  14.3556740  54.2434450  27.4812270  30.2091840  67.1311900
  28.4079580  29.9736110  67.1747860  27.4662700  31.0363840  66.6497930
  35.7157330  29.7517410  54.1286150  35.8909520  29.0655150  53.4847070
  35.0178900  30.2764460  53.7362820  24.6675880  12.8736590  66.8953780
  24.3860150  13.3770190  66.1314600  25.0495580  12.0758340  66.5295910
  23.5584980  30.1412250  51.6821460  24.2903800  29.8571530  51.1345350
  23.8178650  29.9025530  52.5720840  22.7199770  26.2576980  51.6867790
  22.0908650  26.7262080  52.2353620  22.8347600  25.4126200  52.1213980
  31.2691340  12.2890170  67.4734250  31.1556790  12.6084780  68.3685770
  32.0861080  12.6902680  67.1771530  34.0489830  29.4361700  66.9552940
  34.8415150  28.9410930  66.7478900  34.3422980  30.1151840  67.5628550
  30.1749490  20.3082640  37.8368990  30.0943540  19.3937250  37.5660700
  29.7613910  20.8049710  37.1308700  28.3067530  22.0861660  39.7178260
  27.5309630  21.6062100  40.0076830  28.9580460  21.4067310  39.5434420
  22.3233360  22.3981470  40.5954020  21.4918240  22.1430180  40.9950530
  22.9314340  22.4692240  41.3311940  32.3274960  26.4921850  38.4977390
  31.8656490  25.7209090  38.8264560  33.1400510  26.5187920  39.0029840
  22.3034620  26.4321560  40.7912040  22.6062660  25.5419300  40.6122260
  23.0478210  26.9891780  40.5634290  20.7325310  17.3583360  34.3796410
  19.8442010  17.6999330  34.2776290  21.0166500  17.1583680  33.4877240
  18.6958320  19.9589010  40.2636110  19.2674430  19.1911210  40.2639750
  18.6959860  20.2577770  39.3542720  28.5538270  28.7779860  38.1181380
  27.9349710  29.2337360  37.5475820  29.4090050  28.9331320  37.7171080
  27.7476520  24.7618850  39.7248420  27.6784800  23.8208790  39.5637550
  28.5096380  24.8520260  40.2970990  19.9383190  15.3673370  42.0505040
  19.7586030  14.4699120  42.3307800  19.5363270  15.9145240  42.7251990
  28.7781690  17.5689230  39.9517350  29.1546510  16.6961110  39.8391020
  28.6801200  17.9047930  39.0607790  22.9086700  15.9414860  35.4134790
  23.0153450  16.8418590  35.7203550  21.9979060  15.8932830  35.1229440
  32.5605810  15.0639670  36.8845690  33.3815430  14.5736240  36.9271170
  32.5939890  15.6537330  37.6377530  20.5569860  17.8633870  40.6587380
  21.2379970  18.1272240  41.2774780  20.2417910  17.0234740  40.9925390
  24.7494430  18.9101230  39.7459970  25.2572650  19.4082200  40.3864990
  25.2807670  18.1336430  39.5699330  36.8505360  17.0806420  43.4489320
  36.1457530  17.4688130  42.9304430  37.1163280  17.7756710  44.0510250
  23.0330530  13.5499790  44.0123390  23.0348970  14.0672180  43.2069290
  22.2034840  13.0729970  43.9893320  29.4201620  23.6619100  35.5113290
  28.8018890  24.1268550  34.9476010  29.9324870  24.3546580  35.9282800
  24.2833380  23.1894970  42.1896890  23.9502760  23.8163890  42.8317960
  24.4600060  23.7156850  41.4098560  32.7967290  17.0040050  39.6573230
  32.0922860  17.2924940  40.2376340  33.1579450  17.8140160  39.2972790
  22.7145860  15.2609750  42.0193840  23.0562670  16.1051800  41.7247710
  21.7761670  15.4093490  42.1359180  23.4952480  25.1575770  44.0046070
  24.1126480  25.8326850  43.7230520  22.6345600  25.5663750  43.9133570
  18.7884820  24.3475630  32.8852920  18.4112800  24.8362730  32.1537820
  19.0457890  25.0200910  33.5159450  34.4130070  26.6215180  41.9200710
  33.7293590  27.2914290  41.9117380  34.9524360  26.8195830  41.1545570
  35.8654210  16.4494840  40.0482440  34.9179120  16.4833820  40.1797870
  36.1904200  17.2633790  40.4331800  26.3973750  12.7492020  38.3438430
  26.7048730  12.1938910  37.6273930  25.4674450  12.8836480  38.1611420
  31.9488810  28.4659310  40.6345890  31.9615970  28.0621600  39.7668150
  31.3964030  29.2406600  40.5307320  33.2434230  25.1875530  35.7236060
  33.1330560  24.2449860  35.8485480  33.2402480  25.5491170  36.6098820
  31.3474250  23.3689150  41.9628500  31.7643040  23.1549260  41.1281960
  32.0714070  23.6261940  42.5337120  28.7854510  20.8140850  35.0798550
  27.8583790  20.7478230  35.3087020  28.9379330  21.7520980  34.9653790
  28.7723590  17.0857850  32.0765710  27.8327260  17.2471810  32.1618170
  29.0906850  17.8043530  31.5301700  35.2936350  21.7676370  42.0544740
  34.4654980  21.8369460  41.5794870  35.8886830  22.3530680  41.5860570
  32.8151800  22.3761150  35.5833800  32.1964220  22.0380700  34.9360100
  32.7976250  21.7320910  36.2912990  32.2578360  18.5545690  42.9999610
  31.8449540  19.3799400  43.2539600  31.5254310  17.9690730  42.8075970
  24.3911150  21.3405590  37.8618280  23.9868150  20.6282840  37.3664180
  24.4774270  20.9958830  38.7506320  24.8592850  25.0273150  40.0257490
  24.5621140  24.4218620  39.3465270  25.8092670  25.0650460  39.9146850
  23.1039770  18.1148800  41.6417320  23.6554360  18.2244140  40.8670570
  23.6183280  18.4886400  42.3572550  32.9478460  28.6005020  43.6880590
  32.4709020  29.4077210  43.4953200  32.2640250  27.9483350  43.8406800
  23.9511280  24.7654840  46.6765290  23.0539810  24.9894810  46.9238690
  23.9764150  24.8889780  45.7276690  30.9916500  21.6147960  32.5906550
  31.4309780  20.7770390  32.4444370  31.7044920  22.2477360  32.6770690
  22.7782500  21.6368160  45.2522660  22.6390270  22.5090960  45.6210060
  21.8963860  21.2940970  45.1070600  29.1011880  26.5544030  36.5587790
  29.5407790  27.2968360  36.1443180  29.0398770  26.7970600  37.4826750
  24.5762850  27.5789860  47.4607810  24.5478280  27.9832810  46.5936240
  24.4127820  26.6500220  47.2979410  34.5733640  12.8690770  30.9047590
  34.2606300  12.9617600  31.8046660  35.3346110  13.4471800  30.8545020
  21.0915780  20.2350570  35.3624930  20.9713380  20.9612660  34.7506200
  20.7816670  19.4653480  34.8852840  36.5277670  28.3616960  48.7571980
  37.0037390  28.8399850  49.4361060  37.1484830  28.2934450  48.0317480
  18.7301150  23.4065710  41.1693570  18.8081570  23.5414480  40.2249290
  19.3442830  22.6981600  41.3621690  19.9748780  25.1065900  37.5799750
  19.5676860  25.2480490  36.7253350  20.8661790  24.8226060  37.3770960
  35.9310920  25.5529810  45.9171990  36.0573980  25.3141690  44.9989170
  35.9732300  24.7214350  46.3894070  29.7927660  29.2557810  44.4866800
  30.3072330  29.1665820  45.2889230  28.9496740  29.6017510  44.7794710
  31.7682060  29.5413150  33.9150800  31.6083200  29.2516090  34.8132630
  31.6028770  28.7653280  33.3796030  24.2470440  29.3211680  35.6922420
  24.0712920  28.4047220  35.4790220  23.3926180  29.6798970  35.9320220
  31.4708190  27.0500710  32.4748800  30.7773350  27.0478000  31.8151080
  32.2131050  26.6260030  32.0442970  31.0358120  28.6763420  36.5497290
  31.4915070  27.8952800  36.8635910  31.3750640  29.3870240  37.0938470
  35.7834930  17.6062270  46.8821730  35.1679200  18.1141940  46.3537190
  35.4631350  16.7060600  46.8247670  18.7860670  24.4479880  43.7088030
  18.9491710  23.9785240  42.8907400  19.2513120  23.9403440  44.3736870
  23.5579440  13.5785640  38.7448600  23.1147590  14.3595180  38.4133120
  24.1164430  13.9015530  39.4519540  27.8449250  16.4454160  44.3483920
  27.3828620  16.6537180  45.1603860  27.4427360  15.6313510  44.0454590
  32.8453760  17.6663110  45.4780580  31.9947350  17.3668860  45.7989650
  32.6855550  17.9105120  44.5664400  29.9403470  19.1664860  47.5779370
  30.2656880  18.3328610  47.2381600  30.7283800  19.6893380  47.7257700
  26.6738260  13.1996340  33.6254430  26.0492440  13.1956210  34.3507740
  26.5868380  12.3327300  33.2290400  25.5955340  14.1232970  40.6038200
  25.8927670  15.0295800  40.5230220  26.1440900  13.6351750  39.9897770
  23.3493660  18.7019210  36.4729850  23.1234580  18.4856380  37.3776470
  22.5686190  19.1347670  36.1275820  30.5791420  18.7082580  35.0720500
  29.9800310  19.4318380  34.8884120  31.1271030  18.6459360  34.2896950
  25.7892870  19.6004790  47.1390120  25.6936470  18.6599520  46.9890520
  26.6324850  19.8219860  46.7438190  29.1856290  17.3446120  37.1023780
  29.5785860  17.6618320  36.2892470  29.5473140  16.4658000  37.2168300
  20.9203410  16.0118460  45.2923900  20.5266800  16.8593670  45.4996680
  20.2321810  15.3744830  45.4832540  27.4948460  16.0953430  48.3620640
  26.8046780  15.9025630  48.9966730  28.2380760  16.3788070  48.8944940
  18.2220460  13.9346920  39.3253980  17.9333510  14.5049780  40.0378960
  18.9666220  13.4551370  39.6885210  18.4090690  17.8767040  30.5356700
  18.3265360  18.8197800  30.6771690  18.0573750  17.7341950  29.6569050
  29.7711430  19.9351870  41.1974560  29.0392550  20.4438680  41.5464660
  29.3735770  19.1181850  40.8963340  26.2088820  16.6106070  39.6027050
  26.2124880  16.1696020  38.7531590  27.1039940  16.9323400  39.7098870
  22.0591200  16.4932560  38.5621260  21.7191250  16.9707790  39.3188310
  21.2968520  16.0397680  38.2022360  26.2708970  17.6118150  32.5933810
  26.3921790  17.5704630  33.5419630  25.8857480  18.4742300  32.4380540
  30.2337340  15.3885550  40.6097500  30.2510080  15.8394200  41.4539350
  29.9852920  14.4891190  40.8230940  25.2830470  19.9219290  31.9917110
  24.7147370  19.4737540  31.3653020  25.9919470  20.2812070  31.4582260
  33.6608090  12.8017730  46.4483880  33.9853860  12.0707390  46.9741860
  33.6964600  12.4831370  45.5464870  20.3599650  23.8231310  45.8683840
  19.9754440  23.1824980  46.4666800  20.6711840  24.5267430  46.4378570
  26.5096790  20.6707850  41.3492460  26.8766920  20.1966420  42.0953800
  26.3201850  21.5449420  41.6900800  19.3737280  15.4151540  37.4785930
  19.0884200  15.0507210  38.3164550  19.3116140  14.6832000  36.8649070
  24.2996160  19.7116490  43.6676670  23.9953230  20.5908470  43.8927030
  25.2542620  19.7716280  43.7034110  22.8277950  23.9177480  34.2643520
  22.0540210  23.3775100  34.1042240  23.5572580  23.3984090  33.9261280
  33.5865930  22.9142840  40.0569910  34.3065050  23.4098130  39.6666020
  33.3847750  22.2360730  39.4123780  29.0475870  14.3080800  34.1999300
  28.2340480  13.8093970  34.1244610  28.8537820  15.1479050  33.7835650
  28.9684730  22.9851900  45.9438910  28.9022040  22.0647570  45.6896500
  28.3389870  23.0827340  46.6583550  31.7624260  18.6800450  32.4961460
  32.6503880  18.9917680  32.3212800  31.7329350  17.8072700  32.1042040
  22.8715350  23.5857860  37.9022330  23.3894020  22.7826120  37.8479220
  22.4199370  23.5237000  38.7439160  27.7584850  24.8524140  33.1749630
  28.1000550  25.5966370  32.6792950  26.9297560  25.1655260  33.5374460
  20.3559890  20.5519230  44.8148030  19.9974830  21.2173080  45.4021370
  20.0614450  19.7202780  45.1860650  23.5573010  21.0103470  47.6987580
  23.2573150  21.1560650  46.8015400  24.3284250  20.4508760  47.6060970
  28.9001460  25.8072470  45.6942710  28.9146000  24.8753430  45.4761620
  28.1926560  25.8932230  46.3332480  34.0338530  19.9912290  31.9641320
  33.9502250  20.4226510  31.1137760  34.7532720  20.4510640  32.3968140
  35.1112670  22.4479810  45.0411290  34.3860860  23.0408590  44.8440680
  35.6388130  22.4403350  44.2424660  35.0625780  26.8454550  34.6923450
  34.4201940  26.1910170  34.9667170  34.6756440  27.2509640  33.9164120
  30.6412260  24.1739980  38.5395140  30.9936080  23.5768110  37.8796510
  29.7574590  23.8484210  38.7103390  26.7275540  24.9337670  35.9465550
  27.4146670  25.4806880  36.3273140  25.9407960  25.4778400  35.9815160
  18.8667940  20.5510490  31.4382630  19.7362790  20.8335290  31.7218550
  18.3758260  21.3646360  31.3231440  26.0302750  21.9383700  35.5590910
  26.4865530  22.7488950  35.7851100  25.6790960  21.6206840  36.3909400
  28.3335360  27.4490040  42.7883210  28.9777580  27.6549420  43.4656630
  28.6964800  26.6878440  42.3354060  21.9314530  12.2821350  36.0313430
  21.8029160  12.2739250  36.9798350  21.1076550  12.6204440  35.6804440
  29.6067440  25.4522390  41.5060660  30.2489670  24.7515550  41.6192830
  30.1316790  26.2320830  41.3257550  33.4523160  25.7371010  31.2299800
  33.2260740  25.0201450  31.8224440  33.0619360  25.4883450  30.3921550
  31.3805060  26.2517290  44.7096720  31.7161300  26.8383980  45.3874640
  30.4605400  26.1210000  44.9394510  19.2339190  29.7637870  32.0044260
  19.5936830  30.3627210  31.3501530  19.0931530  30.3097760  32.7779290
  18.9308460  14.0412470  45.4920130  18.2166980  14.2409390  46.0972740
  19.3503500  13.2652040  45.8634930  33.0339410  23.6542950  32.8913960
  32.7461110  24.1155640  33.6791840  33.8291580  23.1940720  33.1598180
  19.2181050  28.0292730  46.4786660  19.3272170  27.0887470  46.3382050
  18.5661610  28.2947480  45.8300390  27.2093640  26.3008620  47.8784780
  26.8890510  25.5817860  48.4230470  26.5352000  26.9763690  47.9520840
  25.2507810  27.1469070  32.8217930  25.2417910  27.8798760  32.2062440
  24.3306170  26.9000650  32.9144890  20.8514450  22.3683960  33.5664690
  20.2442400  23.1082860  33.5759990  21.3263800  22.4583320  32.7402890
  30.4247240  16.5334780  43.2421580  30.7928060  15.7129990  43.5701150
  29.5645440  16.5936670  43.6577230  33.7909270  15.4891720  34.0509140
  33.1622430  15.5937390  33.3367370  33.2961190  15.7088500  34.8403020
  28.2367410  27.2097310  31.4843120  28.3379390  27.0061300  30.5545100
  27.3369150  26.9555590  31.6890900  25.7593300  17.7677670  35.4667020
  25.0509450  18.2364010  35.9080630  26.0437780  17.1099680  36.1012210
  27.3849230  19.1874370  43.4659550  27.8834480  19.6620190  44.1311400
  27.5272180  18.2637890  43.6729580  29.7908730  14.4928330  36.9062810
  29.6676510  14.5114460  35.9572320  30.7393290  14.5407270  37.0261210
  26.8785520  29.7283630  36.1790790  27.1327020  29.6905020  35.2570160
  25.9298000  29.6016960  36.1719040  23.9628320  16.0762750  32.8417730
  24.8118850  16.5132900  32.7757920  23.5959590  16.3883010  33.6689790
  34.5916090  15.4042330  44.3087940  34.0889690  16.1447730  44.6481750
  35.4072750  15.7926330  43.9924730  32.8838100  20.6475510  37.7549300
  31.9428240  20.6625740  37.9296990  33.1982170  19.8611470  38.2009600
  22.8619740  22.3295110  31.3153260  23.6283010  22.2176470  31.8778690
  22.9394430  21.6333080  30.6630030  21.5566500  19.7620180  31.9986150
  21.6370090  18.8147690  32.1103550  22.4486250  20.0927060  32.1046810
  34.8863680  27.8184360  39.4303560  35.0111100  28.6415530  39.9027370
  35.7529240  27.6075090  39.0827710  22.3581210  29.9115570  39.1020690
  23.0943690  29.3631030  39.3729260  22.7422130  30.7771580  38.9626680
  19.2426690  25.9789140  34.9762200  18.3166470  26.2210280  34.9667610
  19.7083120  26.8063400  34.8546950  21.3639490  29.0961640  48.2906270
  22.1652220  29.4173690  48.7041670  20.8491310  28.7357220  49.0126180
  25.4683520  29.0845880  30.9246260  26.2612130  29.3734710  30.4728050
  24.9487870  28.6538050  30.2458740  30.2004120  25.2041510  48.2381680
  29.5942280  25.2273110  47.4977430  29.8958230  24.4724550  48.7748930
  31.6304490  28.9321800  46.8491090  32.5826240  28.8479820  46.7991330
  31.4832710  29.5963510  47.5224880  34.5213690  28.3116010  32.3483000
  34.2355200  27.8981150  31.5337180  34.3233240  29.2403720  32.2283520
  19.0837300  21.5835100  47.2342320  19.5876320  21.0042380  47.8058550
  18.3444720  21.8675330  47.7718690  25.9860920  24.3049290  30.7888610
  25.8811560  23.6901640  31.5149990  25.8185140  23.7815180  30.0051620
  26.1375240  22.9906090  46.7677840  25.3720910  23.5591090  46.6832510
  26.3191200  22.6982300  45.8746070  29.2263650  23.3669320  31.3930600
  28.6773750  23.8138620  32.0373340  29.8482910  22.8618570  31.9168270
  33.2798590  24.7211420  47.3252860  34.0208060  25.0587180  46.8220320
  32.5171270  24.8903480  46.7722630  21.1160380  19.7264690  48.1292390
  21.1565720  19.4278560  49.0377620  21.9705880  20.1272300  47.9699910
  24.8938770  22.3260240  33.2895900  25.3155190  22.1600110  34.1327290
  25.0189610  21.5160470  32.7951040  23.0566190  18.3056790  46.0966880
  22.5262650  17.8147740  45.4690220  23.7254260  18.7340990  45.5624810
  27.4066410  21.3497850  30.5373000  27.9272070  20.6346870  30.1714150
  28.0534810  21.9883720  30.8373510  31.9544250  22.7726250  45.8608070
  32.3685270  22.9271330  46.7098490  31.0195250  22.8981470  46.0233850
  32.4266420  20.1122410  47.8647220  33.0087190  19.3574730  47.7767700
  32.6028190  20.6429850  47.0878700  23.5438490  15.2719160  46.1764170
  23.4495360  14.6539910  45.4515040  22.9635880  15.9985450  45.9494080
  26.3099930  13.8292400  43.2091560  25.8617230  13.8516660  42.3637110
  25.6765130  13.4311420  43.8061860  26.7159480  22.7246730  43.8304000
  27.1347590  23.5679460  43.6580240  25.7968110  22.8618770  43.6010780
  29.0523380  20.4562910  45.2141840  29.1719590  19.8604050  45.9536680
  29.9117380  20.4932600  44.7943140  31.3911280  21.0100100  43.7904350
  30.8646500  21.5342720  43.1869490  31.7342620  21.6427490  44.4214080
  23.7897670  18.3993470  30.2354060  23.5886730  17.5360830  30.5967400
  23.6189720  18.3126830  29.2975660  24.5666900  29.0299740  44.9461730
  24.0287990  29.7545800  44.6270430  24.8200860  28.5530080  44.1559070
  25.8192150  16.9984260  46.4717660  26.4091840  16.6900110  47.1595480
  25.0012390  16.5264010  46.6277560  30.6385580  16.6150070  46.7050680
  29.9501100  15.9531610  46.6400670  31.3591600  16.1688340  47.1499140
  31.2685980  13.2101700  32.7640940  31.5488270  12.3669600  33.1200360
  30.4951710  13.4424810  33.2779690  22.5880470  15.4994090  30.2231940
  22.8906370  15.5061520  29.3151090  23.3275060  15.1491950  30.7199600
  27.4229110  30.2650950  45.2048380  27.3487810  31.1686090  45.5120750
  26.5207950  29.9462850  45.1770450  25.8065400  14.4428710  31.2088140
  25.4587400  13.7652700  30.6290590  26.0078170  13.9818220  32.0231530
  27.9714440  29.4309460  32.8274740  28.8665230  29.7694430  32.8493500
  28.0032070  28.7088870  32.1999020  21.6110600  24.8036510  31.0561740
  22.0485470  25.3466180  31.7119320  22.0958330  23.9783460  31.0658080
  18.8256400  27.5925540  38.5082000  19.1559410  26.7246600  38.2760640
  19.2547400  27.7984060  39.3386960  23.4218320  25.9234550  36.1683970
  23.1213860  25.7999520  37.0687880  23.3155810  25.0643140  35.7599700
  19.3146610  28.4596130  41.2463630  18.8777600  28.6396930  42.0787780
  19.8824290  29.2170750  41.1045350  34.9508790  27.9613130  45.5340940
  34.3510780  28.0205690  44.7904860  35.0802690  27.0218110  45.6637790
  36.1910240  25.7030950  30.8710650  35.3603200  25.7707600  31.3417880
  36.3682070  26.5935070  30.5677510  35.6466700  22.4478430  33.3744850
  36.4085610  23.0175080  33.4804540  35.6621070  21.8805630  34.1453160
  19.1471040  20.9716360  37.6052510  18.4919880  20.7028000  36.9612210
  19.9848990  20.8620840  37.1554490  36.6526670  23.3028530  38.2186780
  37.0235500  22.5195850  37.8122750  37.2928600  23.9917630  38.0404080
  33.6360430  24.6865110  43.6317100  32.8220270  25.1162270  43.8942890
  34.0434630  25.2983520  43.0186150  35.6985870  22.7412800  30.5317370
  35.9734710  23.6491680  30.4036590  35.5096610  22.6775330  31.4679360
  32.0961480  15.7657650  31.8271000  32.5146360  15.5788630  30.9867660
  31.7897540  14.9136700  32.1373930  35.5951210  20.6781790  35.5246800
  35.2194810  19.9109720  35.0928090  34.8654330  21.0604490  36.0121730
  20.1846970  21.3568930  42.1455850  20.5520010  21.2696330  43.0251870
  19.6157790  20.5935480  42.0462710  34.9850830  19.8253310  45.1586320
  34.7536920  19.5966060  44.2584270  35.2455380  20.7452860  45.1131210
  19.7362970  18.2678020  46.0514270  18.8419020  18.2344780  46.3907980
  20.2760520  18.4664810  46.8165520  33.4238900  15.0509740  47.9366020
  34.3009080  15.0593140  48.3200020  33.4359740  14.3140580  47.3258370
  18.3609120  18.1815290  33.5477840  17.4573200  18.4445490  33.3729500
  18.8449740  18.4526460  32.7677800  34.8702170  18.9039280  38.8254040
  35.3939650  18.4101930  38.1944210  35.4561590  19.0389640  39.5701610
  35.0491890  18.9879150  42.3473590  34.0994600  18.9542690  42.4618580
  35.2304900  19.8979260  42.1123360  20.9036330  17.2380830  31.4572220
  21.6128030  16.8164050  30.9719500  20.1876270  17.3056060  30.8255570
  20.5510490  13.2920160  30.4974870  21.2738620  13.8329100  30.8156090
  20.8235010  13.0183580  29.6216410  34.3602140  18.1612630  34.7646450
  34.8561260  17.9283500  35.5495330  34.1618210  17.3224470  34.3484090
  20.2402680  12.5426350  40.3997490  20.8878870  11.9923730  39.9592650
  20.6604520  12.7969500  41.2213300  35.7889300  16.7973580  37.2984130
  35.6788580  16.6429620  38.2366400  36.5496890  16.2694520  37.0559540
  34.1355020  12.7367710  43.7567130  34.7727240  13.3501850  44.1226320
  34.2829910  12.7728370  42.8116360  36.6779570  14.6281500  30.5390270
  37.6028880  14.4962680  30.3308560  36.6555360  14.7074320  31.4926720
  36.7518060  15.3992160  33.1646980  35.9569560  15.3337280  33.6939890
  36.9561340  16.3342800  33.1532330  33.6936480  29.4383710  37.1585370
  34.2895550  29.1168280  36.4819790  33.9514630  28.9655530  37.9498640
  19.9934680  12.6982020  43.1422810  19.6449500  13.1545840  43.9080990
  19.6622380  11.8039150  43.2245240  21.5999050  25.8701620  47.3076000
  21.5568680  25.4994530  48.1890460  21.7310060  26.8079190  47.4477820
  25.3005080  27.4261210  42.9085720  25.0596440  27.6935770  42.0216240
  26.2407720  27.5966940  42.9636580  27.5059500  13.8893900  46.6642230
  27.4448390  14.4815730  47.4137640  28.4459880  13.7819860  46.5192490
  30.1434060  13.5463960  46.3034520  30.7574470  13.8643250  45.6415600
  30.6883620  13.0612550  46.9230380  36.5609240  29.4455590  43.7096360
  36.0667520  29.8424460  42.9923490  35.9522530  28.8204800  44.1033640
  20.6655320  12.2258220  46.4173580  21.2138310  12.0446270  45.6539690
  20.7310630  11.4352330  46.9529890  21.4387080  28.8163870  44.4273780
  20.8447400  28.6848570  45.1663820  21.4310920  27.9802010  43.9615880
  30.8842100  12.1096100  42.6303810  30.0101940  12.4431210  42.4276740
  30.7752850  11.6369280  43.4555680  31.7914080  14.3166970  44.0145530
  31.4627440  13.5018730  43.6347260  32.7396380  14.2736780  43.8911220
  34.2448690  30.0879010  40.9883100  33.7851660  30.8394820  40.6141120
  33.6161150  29.3685480  40.9297900  21.0699310  26.1822250  43.3781820
  20.3433370  25.5627540  43.3107770  21.1308460  26.5762860  42.5079900
  24.6744410  28.3967250  40.1631230  25.1909430  27.7854610  39.6379490
  25.3241790  28.8996030  40.6542240  27.4139910  29.2875740  40.9900210
  27.7017720  29.0330040  40.1133220  27.9263130  28.7353100  41.5805780
  28.6316920  13.0265940  41.5696720  27.8488710  13.5011440  41.8493480
  28.3379850  12.1220770  41.4609900  33.1837990  13.7289040  39.6145810
  33.6246080  13.6734140  38.7667410  32.9145580  14.6447050  39.6855990
  35.0476560  13.3604280  37.6254630  34.9864960  12.4165500  37.4785650
  35.8268590  13.4684370  38.1708090  19.3529310  29.4996640  36.5878580
  19.1851350  28.8667320  37.2860470  18.4863820  29.7056040  36.2372770
  19.9757330  13.3313420  34.0910440  20.7336690  13.4442300  33.5174470
  19.5134500  14.1682620  34.0453870  26.5171140  15.4452690  37.0812750
  25.7045650  15.0709580  36.7408630  27.0212780  14.6897770  37.3833940
  31.0196120  12.1095140  38.3195820  31.6225490  12.6815350  38.7944340
  30.2789110  12.6734580  38.0969720  34.1630720  12.5116700  33.5936100
  34.3581350  13.4100150  33.8603530  33.3760590  12.2803780  34.0869050
  20.9592010  28.1929870  34.0328720  20.4339630  28.5737900  33.3290680
  20.8836590  28.8180640  34.7538430  22.3482480  13.8577470  32.6312410
  22.8775240  13.0707270  32.5020360  22.9810800  14.5368660  32.8647940
  24.5420320  13.5952610  35.6857800  23.9123060  12.8939920  35.8527930
  24.0025460  14.3556740  35.4690960  27.4812270  30.2091840  48.3568410
  28.4079580  29.9736110  48.4004370  27.4662700  31.0363840  47.8754440
  24.6675880  12.8736590  48.1210290  24.3860150  13.3770190  47.3571110
  25.0495580  12.0758340  47.7552420  23.5584980  30.1412250  32.9077970
  24.2903800  29.8571530  32.3601860  23.8178650  29.9025530  33.7977350
  22.7199770  26.2576980  32.9124300  22.0908650  26.7262080  33.4610130
  22.8347600  25.4126200  33.3470490  31.2691340  12.2890170  48.6990760
  31.1556790  12.6084780  49.5942280  32.0861080  12.6902680  48.4028040
  34.0489830  29.4361700  48.1809450  34.8415150  28.9410930  47.9735410
  34.3422980  30.1151840  48.7885060  30.1749490  20.3082640  19.0625500
  30.0943540  19.3937250  18.7917210  29.7613910  20.8049710  18.3565210
  28.3067530  22.0861660  20.9434770  27.5309630  21.6062100  21.2333340
  28.9580460  21.4067310  20.7690930  22.3233360  22.3981470  21.8210530
  21.4918240  22.1430180  22.2207040  22.9314340  22.4692240  22.5568450
  32.3274960  26.4921850  19.7233900  31.8656490  25.7209090  20.0521070
  33.1400510  26.5187920  20.2286350  22.3034620  26.4321560  22.0168550
  22.6062660  25.5419300  21.8378770  23.0478210  26.9891780  21.7890800
  20.7325310  17.3583360  15.6052920  19.8442010  17.6999330  15.5032800
  21.0166500  17.1583680  14.7133750  18.6958320  19.9589010  21.4892620
  19.2674430  19.1911210  21.4896260  18.6959860  20.2577770  20.5799230
  28.5538270  28.7779860  19.3437890  27.9349710  29.2337360  18.7732330
  29.4090050  28.9331320  18.9427590  27.7476520  24.7618850  20.9504930
  27.6784800  23.8208790  20.7894060  28.5096380  24.8520260  21.5227500
  19.9383190  15.3673370  23.2761550  19.7586030  14.4699120  23.5564310
  19.5363270  15.9145240  23.9508500  28.7781690  17.5689230  21.1773860
  29.1546510  16.6961110  21.0647530  28.6801200  17.9047930  20.2864300
  22.9086700  15.9414860  16.6391300  23.0153450  16.8418590  16.9460060
  21.9979060  15.8932830  16.3485950  32.5605810  15.0639670  18.1102200
  33.3815430  14.5736240  18.1527680  32.5939890  15.6537330  18.8634040
  20.5569860  17.8633870  21.8843890  21.2379970  18.1272240  22.5031290
  20.2417910  17.0234740  22.2181900  24.7494430  18.9101230  20.9716480
  25.2572650  19.4082200  21.6121500  25.2807670  18.1336430  20.7955840
  36.8505360  17.0806420  24.6745830  36.1457530  17.4688130  24.1560940
  37.1163280  17.7756710  25.2766760  23.0330530  13.5499790  25.2379900
  23.0348970  14.0672180  24.4325800  22.2034840  13.0729970  25.2149830
  29.4201620  23.6619100  16.7369800  28.8018890  24.1268550  16.1732520
  29.9324870  24.3546580  17.1539310  24.2833380  23.1894970  23.4153400
  23.9502760  23.8163890  24.0574470  24.4600060  23.7156850  22.6355070
  32.7967290  17.0040050  20.8829740  32.0922860  17.2924940  21.4632850
  33.1579450  17.8140160  20.5229300  22.7145860  15.2609750  23.2450350
  23.0562670  16.1051800  22.9504220  21.7761670  15.4093490  23.3615690
  23.4952480  25.1575770  25.2302580  24.1126480  25.8326850  24.9487030
  22.6345600  25.5663750  25.1390080  18.7884820  24.3475630  14.1109430
  18.4112800  24.8362730  13.3794330  19.0457890  25.0200910  14.7415960
  34.4130070  26.6215180  23.1457220  33.7293590  27.2914290  23.1373890
  34.9524360  26.8195830  22.3802080  35.8654210  16.4494840  21.2738950
  34.9179120  16.4833820  21.4054380  36.1904200  17.2633790  21.6588310
  26.3973750  12.7492020  19.5694940  26.7048730  12.1938910  18.8530440
  25.4674450  12.8836480  19.3867930  31.9488810  28.4659310  21.8602400
  31.9615970  28.0621600  20.9924660  31.3964030  29.2406600  21.7563830
  33.2434230  25.1875530  16.9492570  33.1330560  24.2449860  17.0741990
  33.2402480  25.5491170  17.8355330  31.3474250  23.3689150  23.1885010
  31.7643040  23.1549260  22.3538470  32.0714070  23.6261940  23.7593630
  28.7854510  20.8140850  16.3055060  27.8583790  20.7478230  16.5343530
  28.9379330  21.7520980  16.1910300  28.7723590  17.0857850  13.3022220
  27.8327260  17.2471810  13.3874680  29.0906850  17.8043530  12.7558210
  35.2936350  21.7676370  23.2801250  34.4654980  21.8369460  22.8051380
  35.8886830  22.3530680  22.8117080  32.8151800  22.3761150  16.8090310
  32.1964220  22.0380700  16.1616610  32.7976250  21.7320910  17.5169500
  32.2578360  18.5545690  24.2256120  31.8449540  19.3799400  24.4796110
  31.5254310  17.9690730  24.0332480  24.3911150  21.3405590  19.0874790
  23.9868150  20.6282840  18.5920690  24.4774270  20.9958830  19.9762830
  24.8592850  25.0273150  21.2514000  24.5621140  24.4218620  20.5721780
  25.8092670  25.0650460  21.1403360  23.1039770  18.1148800  22.8673830
  23.6554360  18.2244140  22.0927080  23.6183280  18.4886400  23.5829060
  32.9478460  28.6005020  24.9137100  32.4709020  29.4077210  24.7209710
  32.2640250  27.9483350  25.0663310  23.9511280  24.7654840  27.9021800
  23.0539810  24.9894810  28.1495200  23.9764150  24.8889780  26.9533200
  30.9916500  21.6147960  13.8163060  31.4309780  20.7770390  13.6700880
  31.7044920  22.2477360  13.9027200  22.7782500  21.6368160  26.4779170
  22.6390270  22.5090960  26.8466570  21.8963860  21.2940970  26.3327110
  29.1011880  26.5544030  17.7844300  29.5407790  27.2968360  17.3699690
  29.0398770  26.7970600  18.7083260  24.5762850  27.5789860  28.6864320
  24.5478280  27.9832810  27.8192750  24.4127820  26.6500220  28.5235920
  34.5733640  12.8690770  12.1304100  34.2606300  12.9617600  13.0303170
  35.3346110  13.4471800  12.0801530  21.0915780  20.2350570  16.5881440
  20.9713380  20.9612660  15.9762710  20.7816670  19.4653480  16.1109350
  36.5277670  28.3616960  29.9828490  37.0037390  28.8399850  30.6617570
  37.1484830  28.2934450  29.2573990  18.7301150  23.4065710  22.3950080
  18.8081570  23.5414480  21.4505800  19.3442830  22.6981600  22.5878200
  19.9748780  25.1065900  18.8056260  19.5676860  25.2480490  17.9509860
  20.8661790  24.8226060  18.6027470  35.9310920  25.5529810  27.1428500
  36.0573980  25.3141690  26.2245680  35.9732300  24.7214350  27.6150580
  29.7927660  29.2557810  25.7123310  30.3072330  29.1665820  26.5145740
  28.9496740  29.6017510  26.0051220  31.7682060  29.5413150  15.1407310
  31.6083200  29.2516090  16.0389140  31.6028770  28.7653280  14.6052540
  24.2470440  29.3211680  16.9178930  24.0712920  28.4047220  16.7046730
  23.3926180  29.6798970  17.1576730  31.4708190  27.0500710  13.7005310
  30.7773350  27.0478000  13.0407590  32.2131050  26.6260030  13.2699480
  31.0358120  28.6763420  17.7753800  31.4915070  27.8952800  18.0892420
  31.3750640  29.3870240  18.3194980  35.7834930  17.6062270  28.1078240
  35.1679200  18.1141940  27.5793700  35.4631350  16.7060600  28.0504180
  18.7860670  24.4479880  24.9344540  18.9491710  23.9785240  24.1163910
  19.2513120  23.9403440  25.5993380  23.5579440  13.5785640  19.9705110
  23.1147590  14.3595180  19.6389630  24.1164430  13.9015530  20.6776050
  27.8449250  16.4454160  25.5740430  27.3828620  16.6537180  26.3860370
  27.4427360  15.6313510  25.2711100  32.8453760  17.6663110  26.7037090
  31.9947350  17.3668860  27.0246160  32.6855550  17.9105120  25.7920910
  29.9403470  19.1664860  28.8035880  30.2656880  18.3328610  28.4638110
  30.7283800  19.6893380  28.9514210  26.6738260  13.1996340  14.8510940
  26.0492440  13.1956210  15.5764250  26.5868380  12.3327300  14.4546910
  25.5955340  14.1232970  21.8294710  25.8927670  15.0295800  21.7486730
  26.1440900  13.6351750  21.2154280  23.3493660  18.7019210  17.6986360
  23.1234580  18.4856380  18.6032980  22.5686190  19.1347670  17.3532330
  30.5791420  18.7082580  16.2977010  29.9800310  19.4318380  16.1140630
  31.1271030  18.6459360  15.5153460  25.7892870  19.6004790  28.3646630
  25.6936470  18.6599520  28.2147030  26.6324850  19.8219860  27.9694700
  29.1856290  17.3446120  18.3280290  29.5785860  17.6618320  17.5148980
  29.5473140  16.4658000  18.4424810  20.9203410  16.0118460  26.5180410
  20.5266800  16.8593670  26.7253190  20.2321810  15.3744830  26.7089050
  27.4948460  16.0953430  29.5877150  26.8046780  15.9025630  30.2223240
  28.2380760  16.3788070  30.1201450  18.2220460  13.9346920  20.5510490
  17.9333510  14.5049780  21.2635470  18.9666220  13.4551370  20.9141720
  18.4090690  17.8767040  11.7613210  18.3265360  18.8197800  11.9028200
  18.0573750  17.7341950  10.8825560  29.7711430  19.9351870  22.4231070
  29.0392550  20.4438680  22.7721170  29.3735770  19.1181850  22.1219850
  26.2088820  16.6106070  20.8283560  26.2124880  16.1696020  19.9788100
  27.1039940  16.9323400  20.9355380  22.0591200  16.4932560  19.7877770
  21.7191250  16.9707790  20.5444820  21.2968520  16.0397680  19.4278870
  26.2708970  17.6118150  13.8190320  26.3921790  17.5704630  14.7676140
  25.8857480  18.4742300  13.6637050  30.2337340  15.3885550  21.8354010
  30.2510080  15.8394200  22.6795860  29.9852920  14.4891190  22.0487450
  25.2830470  19.9219290  13.2173620  24.7147370  19.4737540  12.5909530
  25.9919470  20.2812070  12.6838770  33.6608090  12.8017730  27.6740390
  33.9853860  12.0707390  28.1998370  33.6964600  12.4831370  26.7721380
  20.3599650  23.8231310  27.0940350  19.9754440  23.1824980  27.6923310
  20.6711840  24.5267430  27.6635080  26.5096790  20.6707850  22.5748970
  26.8766920  20.1966420  23.3210310  26.3201850  21.5449420  22.9157310
  19.3737280  15.4151540  18.7042440  19.0884200  15.0507210  19.5421060
  19.3116140  14.6832000  18.0905580  24.2996160  19.7116490  24.8933180
  23.9953230  20.5908470  25.1183540  25.2542620  19.7716280  24.9290620
  22.8277950  23.9177480  15.4900030  22.0540210  23.3775100  15.3298750
  23.5572580  23.3984090  15.1517790  33.5865930  22.9142840  21.2826420
  34.3065050  23.4098130  20.8922530  33.3847750  22.2360730  20.6380290
  29.0475870  14.3080800  15.4255810  28.2340480  13.8093970  15.3501120
  28.8537820  15.1479050  15.0092160  28.9684730  22.9851900  27.1695420
  28.9022040  22.0647570  26.9153010  28.3389870  23.0827340  27.8840060
  31.7624260  18.6800450  13.7217970  32.6503880  18.9917680  13.5469310
  31.7329350  17.8072700  13.3298550  22.8715350  23.5857860  19.1278840
  23.3894020  22.7826120  19.0735730  22.4199370  23.5237000  19.9695670
  27.7584850  24.8524140  14.4006140  28.1000550  25.5966370  13.9049460
  26.9297560  25.1655260  14.7630970  20.3559890  20.5519230  26.0404540
  19.9974830  21.2173080  26.6277880  20.0614450  19.7202780  26.4117160
  23.5573010  21.0103470  28.9244090  23.2573150  21.1560650  28.0271910
  24.3284250  20.4508760  28.8317480  28.9001460  25.8072470  26.9199220
  28.9146000  24.8753430  26.7018130  28.1926560  25.8932230  27.5588990
  34.0338530  19.9912290  13.1897830  33.9502250  20.4226510  12.3394270
  34.7532720  20.4510640  13.6224650  35.1112670  22.4479810  26.2667800
  34.3860860  23.0408590  26.0697190  35.6388130  22.4403350  25.4681170
  35.0625780  26.8454550  15.9179960  34.4201940  26.1910170  16.1923680
  34.6756440  27.2509640  15.1420630  30.6412260  24.1739980  19.7651650
  30.9936080  23.5768110  19.1053020  29.7574590  23.8484210  19.9359900
  26.7275540  24.9337670  17.1722060  27.4146670  25.4806880  17.5529650
  25.9407960  25.4778400  17.2071670  18.8667940  20.5510490  12.6639140
  19.7362790  20.8335290  12.9475060  18.3758260  21.3646360  12.5487950
  26.0302750  21.9383700  16.7847420  26.4865530  22.7488950  17.0107610
  25.6790960  21.6206840  17.6165910  28.3335360  27.4490040  24.0139720
  28.9777580  27.6549420  24.6913140  28.6964800  26.6878440  23.5610570
  21.9314530  12.2821350  17.2569940  21.8029160  12.2739250  18.2054860
  21.1076550  12.6204440  16.9060950  29.6067440  25.4522390  22.7317170
  30.2489670  24.7515550  22.8449340  30.1316790  26.2320830  22.5514060
  33.4523160  25.7371010  12.4556310  33.2260740  25.0201450  13.0480950
  33.0619360  25.4883450  11.6178060  31.3805060  26.2517290  25.9353230
  31.7161300  26.8383980  26.6131150  30.4605400  26.1210000  26.1651020
  19.2339190  29.7637870  13.2300770  19.5936830  30.3627210  12.5758040
  19.0931530  30.3097760  14.0035800  18.9308460  14.0412470  26.7176640
  18.2166980  14.2409390  27.3229250  19.3503500  13.2652040  27.0891440
  33.0339410  23.6542950  14.1170470  32.7461110  24.1155640  14.9048350
  33.8291580  23.1940720  14.3854690  19.2181050  28.0292730  27.7043170
  19.3272170  27.0887470  27.5638560  18.5661610  28.2947480  27.0556900
  27.2093640  26.3008620  29.1041290  26.8890510  25.5817860  29.6486980
  26.5352000  26.9763690  29.1777350  25.2507810  27.1469070  14.0474440
  25.2417910  27.8798760  13.4318950  24.3306170  26.9000650  14.1401400
  20.8514450  22.3683960  14.7921200  20.2442400  23.1082860  14.8016500
  21.3263800  22.4583320  13.9659400  30.4247240  16.5334780  24.4678090
  30.7928060  15.7129990  24.7957660  29.5645440  16.5936670  24.8833740
  33.7909270  15.4891720  15.2765650  33.1622430  15.5937390  14.5623880
  33.2961190  15.7088500  16.0659530  28.2367410  27.2097310  12.7099630
  28.3379390  27.0061300  11.7801610  27.3369150  26.9555590  12.9147410
  25.7593300  17.7677670  16.6923530  25.0509450  18.2364010  17.1337140
  26.0437780  17.1099680  17.3268720  27.3849230  19.1874370  24.6916060
  27.8834480  19.6620190  25.3567910  27.5272180  18.2637890  24.8986090
  29.7908730  14.4928330  18.1319320  29.6676510  14.5114460  17.1828830
  30.7393290  14.5407270  18.2517720  26.8785520  29.7283630  17.4047300
  27.1327020  29.6905020  16.4826670  25.9298000  29.6016960  17.3975550
  23.9628320  16.0762750  14.0674240  24.8118850  16.5132900  14.0014430
  23.5959590  16.3883010  14.8946300  34.5916090  15.4042330  25.5344450
  34.0889690  16.1447730  25.8738260  35.4072750  15.7926330  25.2181240
  32.8838100  20.6475510  18.9805810  31.9428240  20.6625740  19.1553500
  33.1982170  19.8611470  19.4266110  22.8619740  22.3295110  12.5409770
  23.6283010  22.2176470  13.1035200  22.9394430  21.6333080  11.8886540
  21.5566500  19.7620180  13.2242660  21.6370090  18.8147690  13.3360060
  22.4486250  20.0927060  13.3303320  34.8863680  27.8184360  20.6560070
  35.0111100  28.6415530  21.1283880  35.7529240  27.6075090  20.3084220
  22.3581210  29.9115570  20.3277200  23.0943690  29.3631030  20.5985770
  22.7422130  30.7771580  20.1883190  19.2426690  25.9789140  16.2018710
  18.3166470  26.2210280  16.1924120  19.7083120  26.8063400  16.0803460
  21.3639490  29.0961640  29.5162780  22.1652220  29.4173690  29.9298180
  20.8491310  28.7357220  30.2382690  25.4683520  29.0845880  12.1502770
  26.2612130  29.3734710  11.6984560  24.9487870  28.6538050  11.4715250
  30.2004120  25.2041510  29.4638190  29.5942280  25.2273110  28.7233940
  29.8958230  24.4724550  30.0005440  31.6304490  28.9321800  28.0747600
  32.5826240  28.8479820  28.0247840  31.4832710  29.5963510  28.7481390
  34.5213690  28.3116010  13.5739510  34.2355200  27.8981150  12.7593690
  34.3233240  29.2403720  13.4540030  19.0837300  21.5835100  28.4598830
  19.5876320  21.0042380  29.0315060  18.3444720  21.8675330  28.9975200
  25.9860920  24.3049290  12.0145120  25.8811560  23.6901640  12.7406500
  25.8185140  23.7815180  11.2308130  26.1375240  22.9906090  27.9934350
  25.3720910  23.5591090  27.9089020  26.3191200  22.6982300  27.1002580
  29.2263650  23.3669320  12.6187110  28.6773750  23.8138620  13.2629850
  29.8482910  22.8618570  13.1424780  33.2798590  24.7211420  28.5509370
  34.0208060  25.0587180  28.0476830  32.5171270  24.8903480  27.9979140
  21.1160380  19.7264690  29.3548900  21.1565720  19.4278560  30.2634130
  21.9705880  20.1272300  29.1956420  24.8938770  22.3260240  14.5152410
  25.3155190  22.1600110  15.3583800  25.0189610  21.5160470  14.0207550
  23.0566190  18.3056790  27.3223390  22.5262650  17.8147740  26.6946730
  23.7254260  18.7340990  26.7881320  27.4066410  21.3497850  11.7629510
  27.9272070  20.6346870  11.3970660  28.0534810  21.9883720  12.0630020
  31.9544250  22.7726250  27.0864580  32.3685270  22.9271330  27.9355000
  31.0195250  22.8981470  27.2490360  32.4266420  20.1122410  29.0903730
  33.0087190  19.3574730  29.0024210  32.6028190  20.6429850  28.3135210
  23.5438490  15.2719160  27.4020680  23.4495360  14.6539910  26.6771550
  22.9635880  15.9985450  27.1750590  26.3099930  13.8292400  24.4348070
  25.8617230  13.8516660  23.5893620  25.6765130  13.4311420  25.0318370
  26.7159480  22.7246730  25.0560510  27.1347590  23.5679460  24.8836750
  25.7968110  22.8618770  24.8267290  29.0523380  20.4562910  26.4398350
  29.1719590  19.8604050  27.1793190  29.9117380  20.4932600  26.0199650
  31.3911280  21.0100100  25.0160860  30.8646500  21.5342720  24.4126000
  31.7342620  21.6427490  25.6470590  23.7897670  18.3993470  11.4610570
  23.5886730  17.5360830  11.8223910  23.6189720  18.3126830  10.5232170
  24.5666900  29.0299740  26.1718240  24.0287990  29.7545800  25.8526940
  24.8200860  28.5530080  25.3815580  25.8192150  16.9984260  27.6974170
  26.4091840  16.6900110  28.3851990  25.0012390  16.5264010  27.8534070
  30.6385580  16.6150070  27.9307190  29.9501100  15.9531610  27.8657180
  31.3591600  16.1688340  28.3755650  31.2685980  13.2101700  13.9897450
  31.5488270  12.3669600  14.3456870  30.4951710  13.4424810  14.5036200
  22.5880470  15.4994090  11.4488450  22.8906370  15.5061520  10.5407600
  23.3275060  15.1491950  11.9456110  27.4229110  30.2650950  26.4304890
  27.3487810  31.1686090  26.7377260  26.5207950  29.9462850  26.4026960
  25.8065400  14.4428710  12.4344650  25.4587400  13.7652700  11.8547100
  26.0078170  13.9818220  13.2488040  27.9714440  29.4309460  14.0531250
  28.8665230  29.7694430  14.0750010  28.0032070  28.7088870  13.4255530
  21.6110600  24.8036510  12.2818250  22.0485470  25.3466180  12.9375830
  22.0958330  23.9783460  12.2914590  18.8256400  27.5925540  19.7338510
  19.1559410  26.7246600  19.5017150  19.2547400  27.7984060  20.5643470
  23.4218320  25.9234550  17.3940480  23.1213860  25.7999520  18.2944390
  23.3155810  25.0643140  16.9856210  19.3146610  28.4596130  22.4720140
  18.8777600  28.6396930  23.3044290  19.8824290  29.2170750  22.3301860
  34.9508790  27.9613130  26.7597450  34.3510780  28.0205690  26.0161370
  35.0802690  27.0218110  26.8894300  36.1910240  25.7030950  12.0967160
  35.3603200  25.7707600  12.5674390  36.3682070  26.5935070  11.7934020
  35.6466700  22.4478430  14.6001360  36.4085610  23.0175080  14.7061050
  35.6621070  21.8805630  15.3709670  19.1471040  20.9716360  18.8309020
  18.4919880  20.7028000  18.1868720  19.9848990  20.8620840  18.3811000
  36.6526670  23.3028530  19.4443290  37.0235500  22.5195850  19.0379260
  37.2928600  23.9917630  19.2660590  33.6360430  24.6865110  24.8573610
  32.8220270  25.1162270  25.1199400  34.0434630  25.2983520  24.2442660
  35.6985870  22.7412800  11.7573880  35.9734710  23.6491680  11.6293100
  35.5096610  22.6775330  12.6935870  32.0961480  15.7657650  13.0527510
  32.5146360  15.5788630  12.2124170  31.7897540  14.9136700  13.3630440
  35.5951210  20.6781790  16.7503310  35.2194810  19.9109720  16.3184600
  34.8654330  21.0604490  17.2378240  20.1846970  21.3568930  23.3712360
  20.5520010  21.2696330  24.2508380  19.6157790  20.5935480  23.2719220
  34.9850830  19.8253310  26.3842830  34.7536920  19.5966060  25.4840780
  35.2455380  20.7452860  26.3387720  19.7362970  18.2678020  27.2770780
  18.8419020  18.2344780  27.6164490  20.2760520  18.4664810  28.0422030
  33.4238900  15.0509740  29.1622530  34.3009080  15.0593140  29.5456530
  33.4359740  14.3140580  28.5514880  18.3609120  18.1815290  14.7734350
  17.4573200  18.4445490  14.5986010  18.8449740  18.4526460  13.9934310
  34.8702170  18.9039280  20.0510550  35.3939650  18.4101930  19.4200720
  35.4561590  19.0389640  20.7958120  35.0491890  18.9879150  23.5730100
  34.0994600  18.9542690  23.6875090  35.2304900  19.8979260  23.3379870
  20.9036330  17.2380830  12.6828730  21.6128030  16.8164050  12.1976010
  20.1876270  17.3056060  12.0512080  20.5510490  13.2920160  11.7231380
  21.2738620  13.8329100  12.0412600  20.8235010  13.0183580  10.8472920
  34.3602140  18.1612630  15.9902960  34.8561260  17.9283500  16.7751840
  34.1618210  17.3224470  15.5740600  20.2402680  12.5426350  21.6254000
  20.8878870  11.9923730  21.1849160  20.6604520  12.7969500  22.4469810
  35.7889300  16.7973580  18.5240640  35.6788580  16.6429620  19.4622910
  36.5496890  16.2694520  18.2816050  34.1355020  12.7367710  24.9823640
  34.7727240  13.3501850  25.3482830  34.2829910  12.7728370  24.0372870
  36.6779570  14.6281500  11.7646780  37.6028880  14.4962680  11.5565070
  36.6555360  14.7074320  12.7183230  36.7518060  15.3992160  14.3903490
  35.9569560  15.3337280  14.9196400  36.9561340  16.3342800  14.3788840
  33.6936480  29.4383710  18.3841880  34.2895550  29.1168280  17.7076300
  33.9514630  28.9655530  19.1755150  19.9934680  12.6982020  24.3679320
  19.6449500  13.1545840  25.1337500  19.6622380  11.8039150  24.4501750
  21.5999050  25.8701620  28.5332510  21.5568680  25.4994530  29.4146970
  21.7310060  26.8079190  28.6734330  25.3005080  27.4261210  24.1342230
  25.0596440  27.6935770  23.2472750  26.2407720  27.5966940  24.1893090
  27.5059500  13.8893900  27.8898740  27.4448390  14.4815730  28.6394150
  28.4459880  13.7819860  27.7449000  30.1434060  13.5463960  27.5291030
  30.7574470  13.8643250  26.8672110  30.6883620  13.0612550  28.1486890
  36.5609240  29.4455590  24.9352870  36.0667520  29.8424460  24.2180000
  35.9522530  28.8204800  25.3290150  20.6655320  12.2258220  27.6430090
  21.2138310  12.0446270  26.8796200  20.7310630  11.4352330  28.1786400
  21.4387080  28.8163870  25.6530290  20.8447400  28.6848570  26.3920330
  21.4310920  27.9802010  25.1872390  30.8842100  12.1096100  23.8560320
  30.0101940  12.4431210  23.6533250  30.7752850  11.6369280  24.6812190
  31.7914080  14.3166970  25.2402040  31.4627440  13.5018730  24.8603770
  32.7396380  14.2736780  25.1167730  34.2448690  30.0879010  22.2139610
  33.7851660  30.8394820  21.8397630  33.6161150  29.3685480  22.1554410
  21.0699310  26.1822250  24.6038330  20.3433370  25.5627540  24.5364280
  21.1308460  26.5762860  23.7336410  24.6744410  28.3967250  21.3887740
  25.1909430  27.7854610  20.8636000  25.3241790  28.8996030  21.8798750
  27.4139910  29.2875740  22.2156720  27.7017720  29.0330040  21.3389730
  27.9263130  28.7353100  22.8062290  28.6316920  13.0265940  22.7953230
  27.8488710  13.5011440  23.0749990  28.3379850  12.1220770  22.6866410
  33.1837990  13.7289040  20.8402320  33.6246080  13.6734140  19.9923920
  32.9145580  14.6447050  20.9112500  35.0476560  13.3604280  18.8511140
  34.9864960  12.4165500  18.7042160  35.8268590  13.4684370  19.3964600
  19.3529310  29.4996640  17.8135090  19.1851350  28.8667320  18.5116980
  18.4863820  29.7056040  17.4629280  19.9757330  13.3313420  15.3166950
  20.7336690  13.4442300  14.7430980  19.5134500  14.1682620  15.2710380
  26.5171140  15.4452690  18.3069260  25.7045650  15.0709580  17.9665140
  27.0212780  14.6897770  18.6090450  31.0196120  12.1095140  19.5452330
  31.6225490  12.6815350  20.0200850  30.2789110  12.6734580  19.3226230
  34.1630720  12.5116700  14.8192610  34.3581350  13.4100150  15.0860040
  33.3760590  12.2803780  15.3125560  20.9592010  28.1929870  15.2585230
  20.4339630  28.5737900  14.5547190  20.8836590  28.8180640  15.9794940
  22.3482480  13.8577470  13.8568920  22.8775240  13.0707270  13.7276870
  22.9810800  14.5368660  14.0904450  24.5420320  13.5952610  16.9114310
  23.9123060  12.8939920  17.0784440  24.0025460  14.3556740  16.6947470
  27.4812270  30.2091840  29.5824920  28.4079580  29.9736110  29.6260880
  27.4662700  31.0363840  29.1010950  35.7157330  29.7517410  16.5799170
  35.8909520  29.0655150  15.9360090  35.0178900  30.2764460  16.1875840
  24.6675880  12.8736590  29.3466800  24.3860150  13.3770190  28.5827620
  25.0495580  12.0758340  28.9808930  23.5584980  30.1412250  14.1334480
  24.2903800  29.8571530  13.5858370  23.8178650  29.9025530  15.0233860
  22.7199770  26.2576980  14.1380810  22.0908650  26.7262080  14.6866640
  22.8347600  25.4126200  14.5727000  31.2691340  12.2890170  29.9247270
  31.1556790  12.6084780  30.8198790  32.0861080  12.6902680  29.6284550
  34.0489830  29.4361700  29.4065960  34.8415150  28.9410930  29.1991920
  34.3422980  30.1151840  30.0141570  28.3067530  22.0861660   2.1691280
  27.5309630  21.6062100   2.4589850  28.9580460  21.4067310   1.9947440
  22.3233360  22.3981470   3.0467040  21.4918240  22.1430180   3.4463550
  22.9314340  22.4692240   3.7824960  22.3034620  26.4321560   3.2425060
  22.6062660  25.5419300   3.0635280  23.0478210  26.9891780   3.0147310
  18.6958320  19.9589010   2.7149130  19.2674430  19.1911210   2.7152770
  18.6959860  20.2577770   1.8055740  27.7476520  24.7618850   2.1761440
  27.6784800  23.8208790   2.0150570  28.5096380  24.8520260   2.7484010
  19.9383190  15.3673370   4.5018060  19.7586030  14.4699120   4.7820820
  19.5363270  15.9145240   5.1765010  20.5569860  17.8633870   3.1100400
  21.2379970  18.1272240   3.7287800  20.2417910  17.0234740   3.4438410
  24.7494430  18.9101230   2.1972990  25.2572650  19.4082200   2.8378010
  25.2807670  18.1336430   2.0212350  36.8505360  17.0806420   5.9002340
  36.1457530  17.4688130   5.3817450  37.1163280  17.7756710   6.5023270
  23.0330530  13.5499790   6.4636410  23.0348970  14.0672180   5.6582310
  22.2034840  13.0729970   6.4406340  24.2833380  23.1894970   4.6409910
  23.9502760  23.8163890   5.2830980  24.4600060  23.7156850   3.8611580
  32.7967290  17.0040050   2.1086250  32.0922860  17.2924940   2.6889360
  33.1579450  17.8140160   1.7485810  22.7145860  15.2609750   4.4706860
  23.0562670  16.1051800   4.1760730  21.7761670  15.4093490   4.5872200
  23.4952480  25.1575770   6.4559090  24.1126480  25.8326850   6.1743540
  22.6345600  25.5663750   6.3646590  34.4130070  26.6215180   4.3713730
  33.7293590  27.2914290   4.3630400  34.9524360  26.8195830   3.6058590
  35.8654210  16.4494840   2.4995460  34.9179120  16.4833820   2.6310890
  36.1904200  17.2633790   2.8844820  31.9488810  28.4659310   3.0858910
  31.9615970  28.0621600   2.2181170  31.3964030  29.2406600   2.9820340
  31.3474250  23.3689150   4.4141520  31.7643040  23.1549260   3.5794980
  32.0714070  23.6261940   4.9850140  35.2936350  21.7676370   4.5057760
  34.4654980  21.8369460   4.0307890  35.8886830  22.3530680   4.0373590
  32.2578360  18.5545690   5.4512630  31.8449540  19.3799400   5.7052620
  31.5254310  17.9690730   5.2588990  24.8592850  25.0273150   2.4770510
  24.5621140  24.4218620   1.7978290  25.8092670  25.0650460   2.3659870
  23.1039770  18.1148800   4.0930340  23.6554360  18.2244140   3.3183590
  23.6183280  18.4886400   4.8085570  32.9478460  28.6005020   6.1393610
  32.4709020  29.4077210   5.9466220  32.2640250  27.9483350   6.2919820
  23.9511280  24.7654840   9.1278310  23.0539810  24.9894810   9.3751710
  23.9764150  24.8889780   8.1789710  22.7782500  21.6368160   7.7035680
  22.6390270  22.5090960   8.0723080  21.8963860  21.2940970   7.5583620
  24.5762850  27.5789860   9.9120830  24.5478280  27.9832810   9.0449260
  24.4127820  26.6500220   9.7492430  36.5277670  28.3616960  11.2085000
  37.0037390  28.8399850  11.8874080  37.1484830  28.2934450  10.4830500
  18.7301150  23.4065710   3.6206590  18.8081570  23.5414480   2.6762310
  19.3442830  22.6981600   3.8134710  35.9310920  25.5529810   8.3685010
  36.0573980  25.3141690   7.4502190  35.9732300  24.7214350   8.8407090
  29.7927660  29.2557810   6.9379820  30.3072330  29.1665820   7.7402250
  28.9496740  29.6017510   7.2307730  35.7834930  17.6062270   9.3334750
  35.1679200  18.1141940   8.8050210  35.4631350  16.7060600   9.2760690
  18.7860670  24.4479880   6.1601050  18.9491710  23.9785240   5.3420420
  19.2513120  23.9403440   6.8249890  27.8449250  16.4454160   6.7996940
  27.3828620  16.6537180   7.6116880  27.4427360  15.6313510   6.4967610
  32.8453760  17.6663110   7.9293600  31.9947350  17.3668860   8.2502670
  32.6855550  17.9105120   7.0177420  29.9403470  19.1664860  10.0292390
  30.2656880  18.3328610   9.6894620  30.7283800  19.6893380  10.1770720
  25.5955340  14.1232970   3.0551220  25.8927670  15.0295800   2.9743240
  26.1440900  13.6351750   2.4410790  25.7892870  19.6004790   9.5903140
  25.6936470  18.6599520   9.4403540  26.6324850  19.8219860   9.1951210
  20.9203410  16.0118460   7.7436920  20.5266800  16.8593670   7.9509700
  20.2321810  15.3744830   7.9345560  27.4948460  16.0953430  10.8133660
  26.8046780  15.9025630  11.4479750  28.2380760  16.3788070  11.3457960
  18.2220460  13.9346920   1.7767000  17.9333510  14.5049780   2.4891980
  18.9666220  13.4551370   2.1398230  29.7711430  19.9351870   3.6487580
  29.0392550  20.4438680   3.9977680  29.3735770  19.1181850   3.3476360
  30.2337340  15.3885550   3.0610520  30.2510080  15.8394200   3.9052370
  29.9852920  14.4891190   3.2743960  33.6608090  12.8017730   8.8996900
  33.9853860  12.0707390   9.4254880  33.6964600  12.4831370   7.9977890
  20.3599650  23.8231310   8.3196860  19.9754440  23.1824980   8.9179820
  20.6711840  24.5267430   8.8891590  26.5096790  20.6707850   3.8005480
  26.8766920  20.1966420   4.5466820  26.3201850  21.5449420   4.1413820
  24.2996160  19.7116490   6.1189690  23.9953230  20.5908470   6.3440050
  25.2542620  19.7716280   6.1547130  33.5865930  22.9142840   2.5082930
  34.3065050  23.4098130   2.1179040  33.3847750  22.2360730   1.8636800
  28.9684730  22.9851900   8.3951930  28.9022040  22.0647570   8.1409520
  28.3389870  23.0827340   9.1096570  20.3559890  20.5519230   7.2661050
  19.9974830  21.2173080   7.8534390  20.0614450  19.7202780   7.6373670
  23.5573010  21.0103470  10.1500600  23.2573150  21.1560650   9.2528420
  24.3284250  20.4508760  10.0573990  28.9001460  25.8072470   8.1455730
  28.9146000  24.8753430   7.9274640  28.1926560  25.8932230   8.7845500
  35.1112670  22.4479810   7.4924310  34.3860860  23.0408590   7.2953700
  35.6388130  22.4403350   6.6937680  28.3335360  27.4490040   5.2396230
  28.9777580  27.6549420   5.9169650  28.6964800  26.6878440   4.7867080
  29.6067440  25.4522390   3.9573680  30.2489670  24.7515550   4.0705850
  30.1316790  26.2320830   3.7770570  31.3805060  26.2517290   7.1609740
  31.7161300  26.8383980   7.8387660  30.4605400  26.1210000   7.3907530
  18.9308460  14.0412470   7.9433150  18.2166980  14.2409390   8.5485760
  19.3503500  13.2652040   8.3147950  19.2181050  28.0292730   8.9299680
  19.3272170  27.0887470   8.7895070  18.5661610  28.2947480   8.2813410
  27.2093640  26.3008620  10.3297800  26.8890510  25.5817860  10.8743490
  26.5352000  26.9763690  10.4033860  30.4247240  16.5334780   5.6934600
  30.7928060  15.7129990   6.0214170  29.5645440  16.5936670   6.1090250
  27.3849230  19.1874370   5.9172570  27.8834480  19.6620190   6.5824420
  27.5272180  18.2637890   6.1242600  34.5916090  15.4042330   6.7600960
  34.0889690  16.1447730   7.0994770  35.4072750  15.7926330   6.4437750
  21.3639490  29.0961640  10.7419290  22.1652220  29.4173690  11.1554690
  20.8491310  28.7357220  11.4639200  30.2004120  25.2041510  10.6894700
  29.5942280  25.2273110   9.9490450  29.8958230  24.4724550  11.2261950
  31.6304490  28.9321800   9.3004110  32.5826240  28.8479820   9.2504350
  31.4832710  29.5963510   9.9737900  19.0837300  21.5835100   9.6855340
  19.5876320  21.0042380  10.2571570  18.3444720  21.8675330  10.2231710
  26.1375240  22.9906090   9.2190860  25.3720910  23.5591090   9.1345530
  26.3191200  22.6982300   8.3259090  33.2798590  24.7211420   9.7765880
  34.0208060  25.0587180   9.2733340  32.5171270  24.8903480   9.2235650
  21.1160380  19.7264690  10.5805410  21.1565720  19.4278560  11.4890640
  21.9705880  20.1272300  10.4212930  23.0566190  18.3056790   8.5479900
  22.5262650  17.8147740   7.9203240  23.7254260  18.7340990   8.0137830
  31.9544250  22.7726250   8.3121090  32.3685270  22.9271330   9.1611510
  31.0195250  22.8981470   8.4746870  32.4266420  20.1122410  10.3160240
  33.0087190  19.3574730  10.2280720  32.6028190  20.6429850   9.5391720
  23.5438490  15.2719160   8.6277190  23.4495360  14.6539910   7.9028060
  22.9635880  15.9985450   8.4007100  26.3099930  13.8292400   5.6604580
  25.8617230  13.8516660   4.8150130  25.6765130  13.4311420   6.2574880
  26.7159480  22.7246730   6.2817020  27.1347590  23.5679460   6.1093260
  25.7968110  22.8618770   6.0523800  29.0523380  20.4562910   7.6654860
  29.1719590  19.8604050   8.4049700  29.9117380  20.4932600   7.2456160
  31.3911280  21.0100100   6.2417370  30.8646500  21.5342720   5.6382510
  31.7342620  21.6427490   6.8727100  24.5666900  29.0299740   7.3974750
  24.0287990  29.7545800   7.0783450  24.8200860  28.5530080   6.6072090
  25.8192150  16.9984260   8.9230680  26.4091840  16.6900110   9.6108500
  25.0012390  16.5264010   9.0790580  30.6385580  16.6150070   9.1563700
  29.9501100  15.9531610   9.0913690  31.3591600  16.1688340   9.6012160
  27.4229110  30.2650950   7.6561400  27.3487810  31.1686090   7.9633770
  26.5207950  29.9462850   7.6283470  19.3146610  28.4596130   3.6976650
  18.8777600  28.6396930   4.5300800  19.8824290  29.2170750   3.5558370
  34.9508790  27.9613130   7.9853960  34.3510780  28.0205690   7.2417880
  35.0802690  27.0218110   8.1150810  33.6360430  24.6865110   6.0830120
  32.8220270  25.1162270   6.3455910  34.0434630  25.2983520   5.4699170
  20.1846970  21.3568930   4.5968870  20.5520010  21.2696330   5.4764890
  19.6157790  20.5935480   4.4975730  34.9850830  19.8253310   7.6099340
  34.7536920  19.5966060   6.7097290  35.2455380  20.7452860   7.5644230
  19.7362970  18.2678020   8.5027290  18.8419020  18.2344780   8.8421000
  20.2760520  18.4664810   9.2678540  33.4238900  15.0509740  10.3879040
  34.3009080  15.0593140  10.7713040  33.4359740  14.3140580   9.7771390
  35.0491890  18.9879150   4.7986610  34.0994600  18.9542690   4.9131600
  35.2304900  19.8979260   4.5636380  20.2402680  12.5426350   2.8510510
  20.8878870  11.9923730   2.4105670  20.6604520  12.7969500   3.6726320
  34.1355020  12.7367710   6.2080150  34.7727240  13.3501850   6.5739340
  34.2829910  12.7728370   5.2629380  19.9934680  12.6982020   5.5935830
  19.6449500  13.1545840   6.3594010  19.6622380  11.8039150   5.6758260
  21.5999050  25.8701620   9.7589020  21.5568680  25.4994530  10.6403480
  21.7310060  26.8079190   9.8990840  25.3005080  27.4261210   5.3598740
  25.0596440  27.6935770   4.4729260  26.2407720  27.5966940   5.4149600
  27.5059500  13.8893900   9.1155250  27.4448390  14.4815730   9.8650660
  28.4459880  13.7819860   8.9705510  30.1434060  13.5463960   8.7547540
  30.7574470  13.8643250   8.0928620  30.6883620  13.0612550   9.3743400
  36.5609240  29.4455590   6.1609380  36.0667520  29.8424460   5.4436510
  35.9522530  28.8204800   6.5546660  20.6655320  12.2258220   8.8686600
  21.2138310  12.0446270   8.1052710  20.7310630  11.4352330   9.4042910
  21.4387080  28.8163870   6.8786800  20.8447400  28.6848570   7.6176840
  21.4310920  27.9802010   6.4128900  30.8842100  12.1096100   5.0816830
  30.0101940  12.4431210   4.8789760  30.7752850  11.6369280   5.9068700
  31.7914080  14.3166970   6.4658550  31.4627440  13.5018730   6.0860280
  32.7396380  14.2736780   6.3424240  34.2448690  30.0879010   3.4396120
  33.7851660  30.8394820   3.0654140  33.6161150  29.3685480   3.3810920
  21.0699310  26.1822250   5.8294840  20.3433370  25.5627540   5.7620790
  21.1308460  26.5762860   4.9592920  24.6744410  28.3967250   2.6144250
  25.1909430  27.7854610   2.0892510  25.3241790  28.8996030   3.1055260
  27.4139910  29.2875740   3.4413230  27.7017720  29.0330040   2.5646240
  27.9263130  28.7353100   4.0318800  28.6316920  13.0265940   4.0209740
  27.8488710  13.5011440   4.3006500  28.3379850  12.1220770   3.9122920
  27.4812270  30.2091840  10.8081430  28.4079580  29.9736110  10.8517390
  27.4662700  31.0363840  10.3267460  24.6675880  12.8736590  10.5723310
  24.3860150  13.3770190   9.8084130  25.0495580  12.0758340  10.2065440
  31.2691340  12.2890170  11.1503780  31.1556790  12.6084780  12.0455300
  32.0861080  12.6902680  10.8541060  34.0489830  29.4361700  10.6322470
  34.8415150  28.9410930  10.4248430  34.3422980  30.1151840  11.2398080
  32.3274960   7.7178360  94.8207860  31.8656490   6.9465600  95.1495030
  33.1400510   7.7444430  95.3260310  28.5538270  10.0036370  94.4411850
  27.9349710  10.4593870  93.8706290  29.4090050  10.1587830  94.0401550
  29.4201620   4.8875610  91.8343760  28.8018890   5.3525060  91.2706480
  29.9324870   5.5803090  92.2513270  18.7884820   5.5732140  89.2083390
  18.4112800   6.0619240  88.4768290  19.0457890   6.2457420  89.8389920
  33.2434230   6.4132040  92.0466530  33.1330560   5.4706370  92.1715950
  33.2402480   6.7747680  92.9329290  28.7854510   2.0397360  91.4029020
  27.8583790   1.9734740  91.6317490  28.9379330   2.9777490  91.2884260
  32.8151800   3.6017660  91.9064270  32.1964220   3.2637210  91.2590570
  32.7976250   2.9577420  92.6143460  24.3911150   2.5662100  94.1848750
  23.9868150   1.8539350  93.6894650  24.4774270   2.2215340  95.0736790
  30.9916500   2.8404470  88.9137020  31.4309780   2.0026900  88.7674840
  31.7044920   3.4733870  89.0001160  29.1011880   7.7800540  92.8818260
  29.5407790   8.5224870  92.4673650  29.0398770   8.0227110  93.8057220
  19.9748780   6.3322410  93.9030220  19.5676860   6.4737000  93.0483820
  20.8661790   6.0482570  93.7001430  31.7682060  10.7669660  90.2381270
  31.6083200  10.4772600  91.1363100  31.6028770   9.9909790  89.7026500
  24.2470440  10.5468190  92.0152890  24.0712920   9.6303730  91.8020690
  23.3926180  10.9055480  92.2550690  31.4708190   8.2757220  88.7979270
  30.7773350   8.2734510  88.1381550  32.2131050   7.8516540  88.3673440
  31.0358120   9.9019930  92.8727760  31.4915070   9.1209310  93.1866380
  31.3750640  10.6126750  93.4168940  22.8277950   5.1433990  90.5873990
  22.0540210   4.6031610  90.4272710  23.5572580   4.6240600  90.2491750
  22.8715350   4.8114370  94.2252800  23.3894020   4.0082630  94.1709690
  22.4199370   4.7493510  95.0669630  27.7584850   6.0780650  89.4980100
  28.1000550   6.8222880  89.0023420  26.9297560   6.3911770  89.8604930
  35.0625780   8.0711060  91.0153920  34.4201940   7.4166680  91.2897640
  34.6756440   8.4766150  90.2394590  30.6412260   5.3996490  94.8625610
  30.9936080   4.8024620  94.2026980  29.7574590   5.0740720  95.0333860
  26.7275540   6.1594180  92.2696020  27.4146670   6.7063390  92.6503610
  25.9407960   6.7034910  92.3045630  18.8667940   1.7767000  87.7613100
  19.7362790   2.0591800  88.0449020  18.3758260   2.5902870  87.6461910
  26.0302750   3.1640210  91.8821380  26.4865530   3.9745460  92.1081570
  25.6790960   2.8463350  92.7139870  33.4523160   6.9627520  87.5530270
  33.2260740   6.2457960  88.1454910  33.0619360   6.7139960  86.7152020
  19.2339190  10.9894380  88.3274730  19.5936830  11.5883720  87.6732000
  19.0931530  11.5354270  89.1009760  33.0339410   4.8799460  89.2144430
  32.7461110   5.3412150  90.0022310  33.8291580   4.4197230  89.4828650
  25.2507810   8.3725580  89.1448400  25.2417910   9.1055270  88.5292910
  24.3306170   8.1257160  89.2375360  20.8514450   3.5940470  89.8895160
  20.2442400   4.3339370  89.8990460  21.3263800   3.6839830  89.0633360
  28.2367410   8.4353820  87.8073590  28.3379390   8.2317810  86.8775570
  27.3369150   8.1812100  88.0121370  26.8785520  10.9540140  92.5021260
  27.1327020  10.9161530  91.5800630  25.9298000  10.8273470  92.4949510
  22.8619740   3.5551620  87.6383730  23.6283010   3.4432980  88.2009160
  22.9394430   2.8589590  86.9860500  22.3581210  11.1372080  95.4251160
  23.0943690  10.5887540  95.6959730  22.7422130  12.0028090  95.2857150
  19.2426690   7.2045650  91.2992670  18.3166470   7.4466790  91.2898080
  19.7083120   8.0319910  91.1777420  25.4683520  10.3102390  87.2476730
  26.2612130  10.5991220  86.7958520  24.9487870   9.8794560  86.5689210
  34.5213690   9.5372520  88.6713470  34.2355200   9.1237660  87.8567650
  34.3233240  10.4660230  88.5513990  25.9860920   5.5305800  87.1119080
  25.8811560   4.9158150  87.8380460  25.8185140   5.0071690  86.3282090
  29.2263650   4.5925830  87.7161070  28.6773750   5.0395130  88.3603810
  29.8482910   4.0875080  88.2398740  24.8938770   3.5516750  89.6126370
  25.3155190   3.3856620  90.4557760  25.0189610   2.7416980  89.1181510
  27.4066410   2.5754360  86.8603470  27.9272070   1.8603380  86.4944620
  28.0534810   3.2140230  87.1603980  27.9714440  10.6565970  89.1505210
  28.8665230  10.9950940  89.1723970  28.0032070   9.9345380  88.5229490
  21.6110600   6.0293020  87.3792210  22.0485470   6.5722690  88.0349790
  22.0958330   5.2039970  87.3888550  18.8256400   8.8182050  94.8312470
  19.1559410   7.9503110  94.5991110  19.2547400   9.0240570  95.6617430
  23.4218320   7.1491060  92.4914440  23.1213860   7.0256030  93.3918350
  23.3155810   6.2899650  92.0830170  36.1910240   6.9287460  87.1941120
  35.3603200   6.9964110  87.6648350  36.3682070   7.8191580  86.8907980
  35.6466700   3.6734940  89.6975320  36.4085610   4.2431590  89.8035010
  35.6621070   3.1062140  90.4683630  19.1471040   2.1972870  93.9282980
  18.4919880   1.9284510  93.2842680  19.9848990   2.0877350  93.4784960
  36.6526670   4.5285040  94.5417250  37.0235500   3.7452360  94.1353220
  37.2928600   5.2174140  94.3634550  35.6985870   3.9669310  86.8547840
  35.9734710   4.8748190  86.7267060  35.5096610   3.9031840  87.7909830
  33.6936480  10.6640220  93.4815840  34.2895550  10.3424790  92.8050260
  33.9514630  10.1912040  94.2729110  19.3529310  10.7253150  92.9109050
  19.1851350  10.0923830  93.6090940  18.4863820  10.9312550  92.5603240
  20.9592010   9.4186380  90.3559190  20.4339630   9.7994410  89.6521150
  20.8836590  10.0437150  91.0768900  35.7157330  10.9773920  91.6773130
  35.8909520  10.2911660  91.0334050  35.0178900  11.5020970  91.2849800
  23.5584980  11.3668760  89.2308440  24.2903800  11.0828040  88.6832330
  23.8178650  11.1282040  90.1207820  22.7199770   7.4833490  89.2354770
  22.0908650   7.9518590  89.7840600  22.8347600   6.6382710  89.6700960
  28.3067530   3.3118170  77.2665240  27.5309630   2.8318610  77.5563810
  28.9580460   2.6323820  77.0921400  22.3233360   3.6237980  78.1441000
  21.4918240   3.3686690  78.5437510  22.9314340   3.6948750  78.8798920
  32.3274960   7.7178360  76.0464370  31.8656490   6.9465600  76.3751540
  33.1400510   7.7444430  76.5516820  22.3034620   7.6578070  78.3399020
  22.6062660   6.7675810  78.1609240  23.0478210   8.2148290  78.1121270
  28.5538270  10.0036370  75.6668360  27.9349710  10.4593870  75.0962800
  29.4090050  10.1587830  75.2658060  27.7476520   5.9875360  77.2735400
  27.6784800   5.0465300  77.1124530  28.5096380   6.0776770  77.8457970
  29.4201620   4.8875610  73.0600270  28.8018890   5.3525060  72.4962990
  29.9324870   5.5803090  73.4769780  24.2833380   4.4151480  79.7383870
  23.9502760   5.0420400  80.3804940  24.4600060   4.9413360  78.9585540
  23.4952480   6.3832280  81.5533050  24.1126480   7.0583360  81.2717500
  22.6345600   6.7920260  81.4620550  18.7884820   5.5732140  70.4339900
  18.4112800   6.0619240  69.7024800  19.0457890   6.2457420  71.0646430
  34.4130070   7.8471690  79.4687690  33.7293590   8.5170800  79.4604360
  34.9524360   8.0452340  78.7032550  31.9488810   9.6915820  78.1832870
  31.9615970   9.2878110  77.3155130  31.3964030  10.4663110  78.0794300
  33.2434230   6.4132040  73.2723040  33.1330560   5.4706370  73.3972460
  33.2402480   6.7747680  74.1585800  31.3474250   4.5945660  79.5115480
  31.7643040   4.3805770  78.6768940  32.0714070   4.8518450  80.0824100
  28.7854510   2.0397360  72.6285530  27.8583790   1.9734740  72.8574000
  28.9379330   2.9777490  72.5140770  35.2936350   2.9932880  79.6031720
  34.4654980   3.0625970  79.1281850  35.8886830   3.5787190  79.1347550
  32.8151800   3.6017660  73.1320780  32.1964220   3.2637210  72.4847080
  32.7976250   2.9577420  73.8399970  24.3911150   2.5662100  75.4105260
  23.9868150   1.8539350  74.9151160  24.4774270   2.2215340  76.2993300
  24.8592850   6.2529660  77.5744470  24.5621140   5.6475130  76.8952250
  25.8092670   6.2906970  77.4633830  32.9478460   9.8261530  81.2367570
  32.4709020  10.6333720  81.0440180  32.2640250   9.1739860  81.3893780
  23.9511280   5.9911350  84.2252270  23.0539810   6.2151320  84.4725670
  23.9764150   6.1146290  83.2763670  30.9916500   2.8404470  70.1393530
  31.4309780   2.0026900  69.9931350  31.7044920   3.4733870  70.2257670
  22.7782500   2.8624670  82.8009640  22.6390270   3.7347470  83.1697040
  21.8963860   2.5197480  82.6557580  29.1011880   7.7800540  74.1074770
  29.5407790   8.5224870  73.6930160  29.0398770   8.0227110  75.0313730
  24.5762850   8.8046370  85.0094790  24.5478280   9.2089320  84.1423220
  24.4127820   7.8756730  84.8466390  36.5277670   9.5873470  86.3058960
  37.0037390  10.0656360  86.9848040  37.1484830   9.5190960  85.5804460
  18.7301150   4.6322220  78.7180550  18.8081570   4.7670990  77.7736270
  19.3442830   3.9238110  78.9108670  19.9748780   6.3322410  75.1286730
  19.5676860   6.4737000  74.2740330  20.8661790   6.0482570  74.9257940
  35.9310920   6.7786320  83.4658970  36.0573980   6.5398200  82.5476150
  35.9732300   5.9470860  83.9381050  29.7927660  10.4814320  82.0353780
  30.3072330  10.3922330  82.8376210  28.9496740  10.8274020  82.3281690
  31.7682060  10.7669660  71.4637780  31.6083200  10.4772600  72.3619610
  31.6028770   9.9909790  70.9283010  24.2470440  10.5468190  73.2409400
  24.0712920   9.6303730  73.0277200  23.3926180  10.9055480  73.4807200
  31.4708190   8.2757220  70.0235780  30.7773350   8.2734510  69.3638060
  32.2131050   7.8516540  69.5929950  31.0358120   9.9019930  74.0984270
  31.4915070   9.1209310  74.4122890  31.3750640  10.6126750  74.6425450
  18.7860670   5.6736390  81.2575010  18.9491710   5.2041750  80.4394380
  19.2513120   5.1659950  81.9223850  20.3599650   5.0487820  83.4170820
  19.9754440   4.4081490  84.0153780  20.6711840   5.7523940  83.9865550
  26.5096790   1.8964360  78.8979440  26.8766920   1.4222930  79.6440780
  26.3201850   2.7705930  79.2387780  22.8277950   5.1433990  71.8130500
  22.0540210   4.6031610  71.6529220  23.5572580   4.6240600  71.4748260
  33.5865930   4.1399350  77.6056890  34.3065050   4.6354640  77.2153000
  33.3847750   3.4617240  76.9610760  28.9684730   4.2108410  83.4925890
  28.9022040   3.2904080  83.2383480  28.3389870   4.3083850  84.2070530
  22.8715350   4.8114370  75.4509310  23.3894020   4.0082630  75.3966200
  22.4199370   4.7493510  76.2926140  27.7584850   6.0780650  70.7236610
  28.1000550   6.8222880  70.2279930  26.9297560   6.3911770  71.0861440
  23.5573010   2.2359980  85.2474560  23.2573150   2.3817160  84.3502380
  24.3284250   1.6765270  85.1547950  28.9001460   7.0328980  83.2429690
  28.9146000   6.1009940  83.0248600  28.1926560   7.1188740  83.8819460
  35.1112670   3.6736320  82.5898270  34.3860860   4.2665100  82.3927660
  35.6388130   3.6659860  81.7911640  35.0625780   8.0711060  72.2410430
  34.4201940   7.4166680  72.5154150  34.6756440   8.4766150  71.4651100
  30.6412260   5.3996490  76.0882120  30.9936080   4.8024620  75.4283490
  29.7574590   5.0740720  76.2590370  26.7275540   6.1594180  73.4952530
  27.4146670   6.7063390  73.8760120  25.9407960   6.7034910  73.5302140
  18.8667940   1.7767000  68.9869610  19.7362790   2.0591800  69.2705530
  18.3758260   2.5902870  68.8718420  26.0302750   3.1640210  73.1077890
  26.4865530   3.9745460  73.3338080  25.6790960   2.8463350  73.9396380
  28.3335360   8.6746550  80.3370190  28.9777580   8.8805930  81.0143610
  28.6964800   7.9134950  79.8841040  29.6067440   6.6778900  79.0547640
  30.2489670   5.9772060  79.1679810  30.1316790   7.4577340  78.8744530
  33.4523160   6.9627520  68.7786780  33.2260740   6.2457960  69.3711420
  33.0619360   6.7139960  67.9408530  31.3805060   7.4773800  82.2583700
  31.7161300   8.0640490  82.9361620  30.4605400   7.3466510  82.4881490
  19.2339190  10.9894380  69.5531240  19.5936830  11.5883720  68.8988510
  19.0931530  11.5354270  70.3266270  33.0339410   4.8799460  70.4400940
  32.7461110   5.3412150  71.2278820  33.8291580   4.4197230  70.7085160
  19.2181050   9.2549240  84.0273640  19.3272170   8.3143980  83.8869030
  18.5661610   9.5203990  83.3787370  27.2093640   7.5265130  85.4271760
  26.8890510   6.8074370  85.9717450  26.5352000   8.2020200  85.5007820
  25.2507810   8.3725580  70.3704910  25.2417910   9.1055270  69.7549420
  24.3306170   8.1257160  70.4631870  20.8514450   3.5940470  71.1151670
  20.2442400   4.3339370  71.1246970  21.3263800   3.6839830  70.2889870
  28.2367410   8.4353820  69.0330100  28.3379390   8.2317810  68.1032080
  27.3369150   8.1812100  69.2377880  26.8785520  10.9540140  73.7277770
  27.1327020  10.9161530  72.8057140  25.9298000  10.8273470  73.7206020
  22.8619740   3.5551620  68.8640240  23.6283010   3.4432980  69.4265670
  22.9394430   2.8589590  68.2117010  34.8863680   9.0440870  76.9790540
  35.0111100   9.8672040  77.4514350  35.7529240   8.8331600  76.6314690
  22.3581210  11.1372080  76.6507670  23.0943690  10.5887540  76.9216240
  22.7422130  12.0028090  76.5113660  19.2426690   7.2045650  72.5249180
  18.3166470   7.4466790  72.5154590  19.7083120   8.0319910  72.4033930
  21.3639490  10.3218150  85.8393250  22.1652220  10.6430200  86.2528650
  20.8491310   9.9613730  86.5613160  25.4683520  10.3102390  68.4733240
  26.2612130  10.5991220  68.0215030  24.9487870   9.8794560  67.7945720
  30.2004120   6.4298020  85.7868660  29.5942280   6.4529620  85.0464410
  29.8958230   5.6981060  86.3235910  31.6304490  10.1578310  84.3978070
  32.5826240  10.0736330  84.3478310  31.4832710  10.8220020  85.0711860
  34.5213690   9.5372520  69.8969980  34.2355200   9.1237660  69.0824160
  34.3233240  10.4660230  69.7770500  19.0837300   2.8091610  84.7829300
  19.5876320   2.2298890  85.3545530  18.3444720   3.0931840  85.3205670
  25.9860920   5.5305800  68.3375590  25.8811560   4.9158150  69.0636970
  25.8185140   5.0071690  67.5538600  26.1375240   4.2162600  84.3164820
  25.3720910   4.7847600  84.2319490  26.3191200   3.9238810  83.4233050
  29.2263650   4.5925830  68.9417580  28.6773750   5.0395130  69.5860320
  29.8482910   4.0875080  69.4655250  33.2798590   5.9467930  84.8739840
  34.0208060   6.2843690  84.3707300  32.5171270   6.1159990  84.3209610
  24.8938770   3.5516750  70.8382880  25.3155190   3.3856620  71.6814270
  25.0189610   2.7416980  70.3438020  27.4066410   2.5754360  68.0859980
  27.9272070   1.8603380  67.7201130  28.0534810   3.2140230  68.3860490
  31.9544250   3.9982760  83.4095050  32.3685270   4.1527840  84.2585470
  31.0195250   4.1237980  83.5720830  26.7159480   3.9503240  81.3790980
  27.1347590   4.7935970  81.2067220  25.7968110   4.0875280  81.1497760
  31.3911280   2.2356610  81.3391330  30.8646500   2.7599230  80.7356470
  31.7342620   2.8684000  81.9701060  24.5666900  10.2556250  82.4948710
  24.0287990  10.9802310  82.1757410  24.8200860   9.7786590  81.7046050
  27.4229110  11.4907460  82.7535360  27.3487810  12.3942600  83.0607730
  26.5207950  11.1719360  82.7257430  27.9714440  10.6565970  70.3761720
  28.8665230  10.9950940  70.3980480  28.0032070   9.9345380  69.7486000
  21.6110600   6.0293020  68.6048720  22.0485470   6.5722690  69.2606300
  22.0958330   5.2039970  68.6145060  18.8256400   8.8182050  76.0568980
  19.1559410   7.9503110  75.8247620  19.2547400   9.0240570  76.8873940
  23.4218320   7.1491060  73.7170950  23.1213860   7.0256030  74.6174860
  23.3155810   6.2899650  73.3086680  19.3146610   9.6852640  78.7950610
  18.8777600   9.8653440  79.6274760  19.8824290  10.4427260  78.6532330
  34.9508790   9.1869640  83.0827920  34.3510780   9.2462200  82.3391840
  35.0802690   8.2474620  83.2124770  36.1910240   6.9287460  68.4197630
  35.3603200   6.9964110  68.8904860  36.3682070   7.8191580  68.1164490
  35.6466700   3.6734940  70.9231830  36.4085610   4.2431590  71.0291520
  35.6621070   3.1062140  71.6940140  19.1471040   2.1972870  75.1539490
  18.4919880   1.9284510  74.5099190  19.9848990   2.0877350  74.7041470
  36.6526670   4.5285040  75.7673760  37.0235500   3.7452360  75.3609730
  37.2928600   5.2174140  75.5891060  33.6360430   5.9121620  81.1804080
  32.8220270   6.3418780  81.4429870  34.0434630   6.5240030  80.5673130
  35.6985870   3.9669310  68.0804350  35.9734710   4.8748190  67.9523570
  35.5096610   3.9031840  69.0166340  20.1846970   2.5825440  79.6942830
  20.5520010   2.4952840  80.5738850  19.6157790   1.8191990  79.5949690
  33.6936480  10.6640220  74.7072350  34.2895550  10.3424790  74.0306770
  33.9514630  10.1912040  75.4985620  21.5999050   7.0958130  84.8562980
  21.5568680   6.7251040  85.7377440  21.7310060   8.0335700  84.9964800
  25.3005080   8.6517720  80.4572700  25.0596440   8.9192280  79.5703220
  26.2407720   8.8223450  80.5123560  36.5609240  10.6712100  81.2583340
  36.0667520  11.0680970  80.5410470  35.9522530  10.0461310  81.6520620
  21.4387080  10.0420380  81.9760760  20.8447400   9.9105080  82.7150800
  21.4310920   9.2058520  81.5102860  34.2448690  11.3135520  78.5370080
  33.7851660  12.0651330  78.1628100  33.6161150  10.5941990  78.4784880
  21.0699310   7.4078760  80.9268800  20.3433370   6.7884050  80.8594750
  21.1308460   7.8019370  80.0566880  24.6744410   9.6223760  77.7118210
  25.1909430   9.0111120  77.1866470  25.3241790  10.1252540  78.2029220
  27.4139910  10.5132250  78.5387190  27.7017720  10.2586550  77.6620200
  27.9263130   9.9609610  79.1292760  19.3529310  10.7253150  74.1365560
  19.1851350  10.0923830  74.8347450  18.4863820  10.9312550  73.7859750
  20.9592010   9.4186380  71.5815700  20.4339630   9.7994410  70.8777660
  20.8836590  10.0437150  72.3025410  27.4812270  11.4348350  85.9055390
  28.4079580  11.1992620  85.9491350  27.4662700  12.2620350  85.4241420
  35.7157330  10.9773920  72.9029640  35.8909520  10.2911660  72.2590560
  35.0178900  11.5020970  72.5106310  23.5584980  11.3668760  70.4564950
  24.2903800  11.0828040  69.9088840  23.8178650  11.1282040  71.3464330
  22.7199770   7.4833490  70.4611280  22.0908650   7.9518590  71.0097110
  22.8347600   6.6382710  70.8957470  34.0489830  10.6618210  85.7296430
  34.8415150  10.1667440  85.5222390  34.3422980  11.3408350  86.3372040
  28.3067530   3.3118170  58.4921750  27.5309630   2.8318610  58.7820320
  28.9580460   2.6323820  58.3177910  22.3233360   3.6237980  59.3697510
  21.4918240   3.3686690  59.7694020  22.9314340   3.6948750  60.1055430
  32.3274960   7.7178360  57.2720880  31.8656490   6.9465600  57.6008050
  33.1400510   7.7444430  57.7773330  22.3034620   7.6578070  59.5655530
  22.6062660   6.7675810  59.3865750  23.0478210   8.2148290  59.3377780
  28.5538270  10.0036370  56.8924870  27.9349710  10.4593870  56.3219310
  29.4090050  10.1587830  56.4914570  27.7476520   5.9875360  58.4991910
  27.6784800   5.0465300  58.3381040  28.5096380   6.0776770  59.0714480
  29.4201620   4.8875610  54.2856780  28.8018890   5.3525060  53.7219500
  29.9324870   5.5803090  54.7026290  24.2833380   4.4151480  60.9640380
  23.9502760   5.0420400  61.6061450  24.4600060   4.9413360  60.1842050
  23.4952480   6.3832280  62.7789560  24.1126480   7.0583360  62.4974010
  22.6345600   6.7920260  62.6877060  18.7884820   5.5732140  51.6596410
  18.4112800   6.0619240  50.9281310  19.0457890   6.2457420  52.2902940
  34.4130070   7.8471690  60.6944200  33.7293590   8.5170800  60.6860870
  34.9524360   8.0452340  59.9289060  31.9488810   9.6915820  59.4089380
  31.9615970   9.2878110  58.5411640  31.3964030  10.4663110  59.3050810
  33.2434230   6.4132040  54.4979550  33.1330560   5.4706370  54.6228970
  33.2402480   6.7747680  55.3842310  31.3474250   4.5945660  60.7371990
  31.7643040   4.3805770  59.9025450  32.0714070   4.8518450  61.3080610
  28.7854510   2.0397360  53.8542040  27.8583790   1.9734740  54.0830510
  28.9379330   2.9777490  53.7397280  35.2936350   2.9932880  60.8288230
  34.4654980   3.0625970  60.3538360  35.8886830   3.5787190  60.3604060
  32.8151800   3.6017660  54.3577290  32.1964220   3.2637210  53.7103590
  32.7976250   2.9577420  55.0656480  24.3911150   2.5662100  56.6361770
  23.9868150   1.8539350  56.1407670  24.4774270   2.2215340  57.5249810
  24.8592850   6.2529660  58.8000980  24.5621140   5.6475130  58.1208760
  25.8092670   6.2906970  58.6890340  32.9478460   9.8261530  62.4624080
  32.4709020  10.6333720  62.2696690  32.2640250   9.1739860  62.6150290
  23.9511280   5.9911350  65.4508780  23.0539810   6.2151320  65.6982180
  23.9764150   6.1146290  64.5020180  30.9916500   2.8404470  51.3650040
  31.4309780   2.0026900  51.2187860  31.7044920   3.4733870  51.4514180
  22.7782500   2.8624670  64.0266150  22.6390270   3.7347470  64.3953550
  21.8963860   2.5197480  63.8814090  29.1011880   7.7800540  55.3331280
  29.5407790   8.5224870  54.9186670  29.0398770   8.0227110  56.2570240
  24.5762850   8.8046370  66.2351300  24.5478280   9.2089320  65.3679730
  24.4127820   7.8756730  66.0722900  36.5277670   9.5873470  67.5315470
  37.0037390  10.0656360  68.2104550  37.1484830   9.5190960  66.8060970
  18.7301150   4.6322220  59.9437060  18.8081570   4.7670990  58.9992780
  19.3442830   3.9238110  60.1365180  19.9748780   6.3322410  56.3543240
  19.5676860   6.4737000  55.4996840  20.8661790   6.0482570  56.1514450
  35.9310920   6.7786320  64.6915480  36.0573980   6.5398200  63.7732660
  35.9732300   5.9470860  65.1637560  29.7927660  10.4814320  63.2610290
  30.3072330  10.3922330  64.0632720  28.9496740  10.8274020  63.5538200
  31.7682060  10.7669660  52.6894290  31.6083200  10.4772600  53.5876120
  31.6028770   9.9909790  52.1539520  24.2470440  10.5468190  54.4665910
  24.0712920   9.6303730  54.2533710  23.3926180  10.9055480  54.7063710
  31.4708190   8.2757220  51.2492290  30.7773350   8.2734510  50.5894570
  32.2131050   7.8516540  50.8186460  31.0358120   9.9019930  55.3240780
  31.4915070   9.1209310  55.6379400  31.3750640  10.6126750  55.8681960
  18.7860670   5.6736390  62.4831520  18.9491710   5.2041750  61.6650890
  19.2513120   5.1659950  63.1480360  20.3599650   5.0487820  64.6427330
  19.9754440   4.4081490  65.2410290  20.6711840   5.7523940  65.2122060
  26.5096790   1.8964360  60.1235950  26.8766920   1.4222930  60.8697290
  26.3201850   2.7705930  60.4644290  22.8277950   5.1433990  53.0387010
  22.0540210   4.6031610  52.8785730  23.5572580   4.6240600  52.7004770
  33.5865930   4.1399350  58.8313400  34.3065050   4.6354640  58.4409510
  33.3847750   3.4617240  58.1867270  28.9684730   4.2108410  64.7182400
  28.9022040   3.2904080  64.4639990  28.3389870   4.3083850  65.4327040
  22.8715350   4.8114370  56.6765820  23.3894020   4.0082630  56.6222710
  22.4199370   4.7493510  57.5182650  27.7584850   6.0780650  51.9493120
  28.1000550   6.8222880  51.4536440  26.9297560   6.3911770  52.3117950
  23.5573010   2.2359980  66.4731070  23.2573150   2.3817160  65.5758890
  24.3284250   1.6765270  66.3804460  28.9001460   7.0328980  64.4686200
  28.9146000   6.1009940  64.2505110  28.1926560   7.1188740  65.1075970
  35.1112670   3.6736320  63.8154780  34.3860860   4.2665100  63.6184170
  35.6388130   3.6659860  63.0168150  35.0625780   8.0711060  53.4666940
  34.4201940   7.4166680  53.7410660  34.6756440   8.4766150  52.6907610
  30.6412260   5.3996490  57.3138630  30.9936080   4.8024620  56.6540000
  29.7574590   5.0740720  57.4846880  26.7275540   6.1594180  54.7209040
  27.4146670   6.7063390  55.1016630  25.9407960   6.7034910  54.7558650
  18.8667940   1.7767000  50.2126120  19.7362790   2.0591800  50.4962040
  18.3758260   2.5902870  50.0974930  26.0302750   3.1640210  54.3334400
  26.4865530   3.9745460  54.5594590  25.6790960   2.8463350  55.1652890
  28.3335360   8.6746550  61.5626700  28.9777580   8.8805930  62.2400120
  28.6964800   7.9134950  61.1097550  29.6067440   6.6778900  60.2804150
  30.2489670   5.9772060  60.3936320  30.1316790   7.4577340  60.1001040
  33.4523160   6.9627520  50.0043290  33.2260740   6.2457960  50.5967930
  33.0619360   6.7139960  49.1665040  31.3805060   7.4773800  63.4840210
  31.7161300   8.0640490  64.1618130  30.4605400   7.3466510  63.7138000
  19.2339190  10.9894380  50.7787750  19.5936830  11.5883720  50.1245020
  19.0931530  11.5354270  51.5522780  33.0339410   4.8799460  51.6657450
  32.7461110   5.3412150  52.4535330  33.8291580   4.4197230  51.9341670
  19.2181050   9.2549240  65.2530150  19.3272170   8.3143980  65.1125540
  18.5661610   9.5203990  64.6043880  27.2093640   7.5265130  66.6528270
  26.8890510   6.8074370  67.1973960  26.5352000   8.2020200  66.7264330
  25.2507810   8.3725580  51.5961420  25.2417910   9.1055270  50.9805930
  24.3306170   8.1257160  51.6888380  20.8514450   3.5940470  52.3408180
  20.2442400   4.3339370  52.3503480  21.3263800   3.6839830  51.5146380
  28.2367410   8.4353820  50.2586610  28.3379390   8.2317810  49.3288590
  27.3369150   8.1812100  50.4634390  26.8785520  10.9540140  54.9534280
  27.1327020  10.9161530  54.0313650  25.9298000  10.8273470  54.9462530
  22.8619740   3.5551620  50.0896750  23.6283010   3.4432980  50.6522180
  22.9394430   2.8589590  49.4373520  34.8863680   9.0440870  58.2047050
  35.0111100   9.8672040  58.6770860  35.7529240   8.8331600  57.8571200
  22.3581210  11.1372080  57.8764180  23.0943690  10.5887540  58.1472750
  22.7422130  12.0028090  57.7370170  19.2426690   7.2045650  53.7505690
  18.3166470   7.4466790  53.7411100  19.7083120   8.0319910  53.6290440
  21.3639490  10.3218150  67.0649760  22.1652220  10.6430200  67.4785160
  20.8491310   9.9613730  67.7869670  25.4683520  10.3102390  49.6989750
  26.2612130  10.5991220  49.2471540  24.9487870   9.8794560  49.0202230
  30.2004120   6.4298020  67.0125170  29.5942280   6.4529620  66.2720920
  29.8958230   5.6981060  67.5492420  31.6304490  10.1578310  65.6234580
  32.5826240  10.0736330  65.5734820  31.4832710  10.8220020  66.2968370
  34.5213690   9.5372520  51.1226490  34.2355200   9.1237660  50.3080670
  34.3233240  10.4660230  51.0027010  19.0837300   2.8091610  66.0085810
  19.5876320   2.2298890  66.5802040  18.3444720   3.0931840  66.5462180
  25.9860920   5.5305800  49.5632100  25.8811560   4.9158150  50.2893480
  25.8185140   5.0071690  48.7795110  26.1375240   4.2162600  65.5421330
  25.3720910   4.7847600  65.4576000  26.3191200   3.9238810  64.6489560
  29.2263650   4.5925830  50.1674090  28.6773750   5.0395130  50.8116830
  29.8482910   4.0875080  50.6911760  33.2798590   5.9467930  66.0996350
  34.0208060   6.2843690  65.5963810  32.5171270   6.1159990  65.5466120
  24.8938770   3.5516750  52.0639390  25.3155190   3.3856620  52.9070780
  25.0189610   2.7416980  51.5694530  27.4066410   2.5754360  49.3116490
  27.9272070   1.8603380  48.9457640  28.0534810   3.2140230  49.6117000
  31.9544250   3.9982760  64.6351560  32.3685270   4.1527840  65.4841980
  31.0195250   4.1237980  64.7977340  26.7159480   3.9503240  62.6047490
  27.1347590   4.7935970  62.4323730  25.7968110   4.0875280  62.3754270
  31.3911280   2.2356610  62.5647840  30.8646500   2.7599230  61.9612980
  31.7342620   2.8684000  63.1957570  24.5666900  10.2556250  63.7205220
  24.0287990  10.9802310  63.4013920  24.8200860   9.7786590  62.9302560
  27.4229110  11.4907460  63.9791870  27.3487810  12.3942600  64.2864240
  26.5207950  11.1719360  63.9513940  27.9714440  10.6565970  51.6018230
  28.8665230  10.9950940  51.6236990  28.0032070   9.9345380  50.9742510
  21.6110600   6.0293020  49.8305230  22.0485470   6.5722690  50.4862810
  22.0958330   5.2039970  49.8401570  18.8256400   8.8182050  57.2825490
  19.1559410   7.9503110  57.0504130  19.2547400   9.0240570  58.1130450
  23.4218320   7.1491060  54.9427460  23.1213860   7.0256030  55.8431370
  23.3155810   6.2899650  54.5343190  19.3146610   9.6852640  60.0207120
  18.8777600   9.8653440  60.8531270  19.8824290  10.4427260  59.8788840
  34.9508790   9.1869640  64.3084430  34.3510780   9.2462200  63.5648350
  35.0802690   8.2474620  64.4381280  36.1910240   6.9287460  49.6454140
  35.3603200   6.9964110  50.1161370  36.3682070   7.8191580  49.3421000
  35.6466700   3.6734940  52.1488340  36.4085610   4.2431590  52.2548030
  35.6621070   3.1062140  52.9196650  19.1471040   2.1972870  56.3796000
  18.4919880   1.9284510  55.7355700  19.9848990   2.0877350  55.9297980
  36.6526670   4.5285040  56.9930270  37.0235500   3.7452360  56.5866240
  37.2928600   5.2174140  56.8147570  33.6360430   5.9121620  62.4060590
  32.8220270   6.3418780  62.6686380  34.0434630   6.5240030  61.7929640
  35.6985870   3.9669310  49.3060860  35.9734710   4.8748190  49.1780080
  35.5096610   3.9031840  50.2422850  20.1846970   2.5825440  60.9199340
  20.5520010   2.4952840  61.7995360  19.6157790   1.8191990  60.8206200
  33.6936480  10.6640220  55.9328860  34.2895550  10.3424790  55.2563280
  33.9514630  10.1912040  56.7242130  21.5999050   7.0958130  66.0819490
  21.5568680   6.7251040  66.9633950  21.7310060   8.0335700  66.2221310
  25.3005080   8.6517720  61.6829210  25.0596440   8.9192280  60.7959730
  26.2407720   8.8223450  61.7380070  36.5609240  10.6712100  62.4839850
  36.0667520  11.0680970  61.7666980  35.9522530  10.0461310  62.8777130
  21.4387080  10.0420380  63.2017270  20.8447400   9.9105080  63.9407310
  21.4310920   9.2058520  62.7359370  34.2448690  11.3135520  59.7626590
  33.7851660  12.0651330  59.3884610  33.6161150  10.5941990  59.7041390
  21.0699310   7.4078760  62.1525310  20.3433370   6.7884050  62.0851260
  21.1308460   7.8019370  61.2823390  24.6744410   9.6223760  58.9374720
  25.1909430   9.0111120  58.4122980  25.3241790  10.1252540  59.4285730
  27.4139910  10.5132250  59.7643700  27.7017720  10.2586550  58.8876710
  27.9263130   9.9609610  60.3549270  19.3529310  10.7253150  55.3622070
  19.1851350  10.0923830  56.0603960  18.4863820  10.9312550  55.0116260
  20.9592010   9.4186380  52.8072210  20.4339630   9.7994410  52.1034170
  20.8836590  10.0437150  53.5281920  27.4812270  11.4348350  67.1311900
  28.4079580  11.1992620  67.1747860  27.4662700  12.2620350  66.6497930
  35.7157330  10.9773920  54.1286150  35.8909520  10.2911660  53.4847070
  35.0178900  11.5020970  53.7362820  23.5584980  11.3668760  51.6821460
  24.2903800  11.0828040  51.1345350  23.8178650  11.1282040  52.5720840
  22.7199770   7.4833490  51.6867790  22.0908650   7.9518590  52.2353620
  22.8347600   6.6382710  52.1213980  34.0489830  10.6618210  66.9552940
  34.8415150  10.1667440  66.7478900  34.3422980  11.3408350  67.5628550
  28.3067530   3.3118170  39.7178260  27.5309630   2.8318610  40.0076830
  28.9580460   2.6323820  39.5434420  22.3233360   3.6237980  40.5954020
  21.4918240   3.3686690  40.9950530  22.9314340   3.6948750  41.3311940
  32.3274960   7.7178360  38.4977390  31.8656490   6.9465600  38.8264560
  33.1400510   7.7444430  39.0029840  22.3034620   7.6578070  40.7912040
  22.6062660   6.7675810  40.6122260  23.0478210   8.2148290  40.5634290
  28.5538270  10.0036370  38.1181380  27.9349710  10.4593870  37.5475820
  29.4090050  10.1587830  37.7171080  27.7476520   5.9875360  39.7248420
  27.6784800   5.0465300  39.5637550  28.5096380   6.0776770  40.2970990
  29.4201620   4.8875610  35.5113290  28.8018890   5.3525060  34.9476010
  29.9324870   5.5803090  35.9282800  24.2833380   4.4151480  42.1896890
  23.9502760   5.0420400  42.8317960  24.4600060   4.9413360  41.4098560
  23.4952480   6.3832280  44.0046070  24.1126480   7.0583360  43.7230520
  22.6345600   6.7920260  43.9133570  18.7884820   5.5732140  32.8852920
  18.4112800   6.0619240  32.1537820  19.0457890   6.2457420  33.5159450
  34.4130070   7.8471690  41.9200710  33.7293590   8.5170800  41.9117380
  34.9524360   8.0452340  41.1545570  31.9488810   9.6915820  40.6345890
  31.9615970   9.2878110  39.7668150  31.3964030  10.4663110  40.5307320
  33.2434230   6.4132040  35.7236060  33.1330560   5.4706370  35.8485480
  33.2402480   6.7747680  36.6098820  31.3474250   4.5945660  41.9628500
  31.7643040   4.3805770  41.1281960  32.0714070   4.8518450  42.5337120
  28.7854510   2.0397360  35.0798550  27.8583790   1.9734740  35.3087020
  28.9379330   2.9777490  34.9653790  35.2936350   2.9932880  42.0544740
  34.4654980   3.0625970  41.5794870  35.8886830   3.5787190  41.5860570
  32.8151800   3.6017660  35.5833800  32.1964220   3.2637210  34.9360100
  32.7976250   2.9577420  36.2912990  24.3911150   2.5662100  37.8618280
  23.9868150   1.8539350  37.3664180  24.4774270   2.2215340  38.7506320
  24.8592850   6.2529660  40.0257490  24.5621140   5.6475130  39.3465270
  25.8092670   6.2906970  39.9146850  32.9478460   9.8261530  43.6880590
  32.4709020  10.6333720  43.4953200  32.2640250   9.1739860  43.8406800
  23.9511280   5.9911350  46.6765290  23.0539810   6.2151320  46.9238690
  23.9764150   6.1146290  45.7276690  30.9916500   2.8404470  32.5906550
  31.4309780   2.0026900  32.4444370  31.7044920   3.4733870  32.6770690
  22.7782500   2.8624670  45.2522660  22.6390270   3.7347470  45.6210060
  21.8963860   2.5197480  45.1070600  29.1011880   7.7800540  36.5587790
  29.5407790   8.5224870  36.1443180  29.0398770   8.0227110  37.4826750
  24.5762850   8.8046370  47.4607810  24.5478280   9.2089320  46.5936240
  24.4127820   7.8756730  47.2979410  36.5277670   9.5873470  48.7571980
  37.0037390  10.0656360  49.4361060  37.1484830   9.5190960  48.0317480
  18.7301150   4.6322220  41.1693570  18.8081570   4.7670990  40.2249290
  19.3442830   3.9238110  41.3621690  19.9748780   6.3322410  37.5799750
  19.5676860   6.4737000  36.7253350  20.8661790   6.0482570  37.3770960
  35.9310920   6.7786320  45.9171990  36.0573980   6.5398200  44.9989170
  35.9732300   5.9470860  46.3894070  29.7927660  10.4814320  44.4866800
  30.3072330  10.3922330  45.2889230  28.9496740  10.8274020  44.7794710
  31.7682060  10.7669660  33.9150800  31.6083200  10.4772600  34.8132630
  31.6028770   9.9909790  33.3796030  24.2470440  10.5468190  35.6922420
  24.0712920   9.6303730  35.4790220  23.3926180  10.9055480  35.9320220
  31.4708190   8.2757220  32.4748800  30.7773350   8.2734510  31.8151080
  32.2131050   7.8516540  32.0442970  31.0358120   9.9019930  36.5497290
  31.4915070   9.1209310  36.8635910  31.3750640  10.6126750  37.0938470
  18.7860670   5.6736390  43.7088030  18.9491710   5.2041750  42.8907400
  19.2513120   5.1659950  44.3736870  20.3599650   5.0487820  45.8683840
  19.9754440   4.4081490  46.4666800  20.6711840   5.7523940  46.4378570
  26.5096790   1.8964360  41.3492460  26.8766920   1.4222930  42.0953800
  26.3201850   2.7705930  41.6900800  22.8277950   5.1433990  34.2643520
  22.0540210   4.6031610  34.1042240  23.5572580   4.6240600  33.9261280
  33.5865930   4.1399350  40.0569910  34.3065050   4.6354640  39.6666020
  33.3847750   3.4617240  39.4123780  28.9684730   4.2108410  45.9438910
  28.9022040   3.2904080  45.6896500  28.3389870   4.3083850  46.6583550
  22.8715350   4.8114370  37.9022330  23.3894020   4.0082630  37.8479220
  22.4199370   4.7493510  38.7439160  27.7584850   6.0780650  33.1749630
  28.1000550   6.8222880  32.6792950  26.9297560   6.3911770  33.5374460
  23.5573010   2.2359980  47.6987580  23.2573150   2.3817160  46.8015400
  24.3284250   1.6765270  47.6060970  28.9001460   7.0328980  45.6942710
  28.9146000   6.1009940  45.4761620  28.1926560   7.1188740  46.3332480
  35.1112670   3.6736320  45.0411290  34.3860860   4.2665100  44.8440680
  35.6388130   3.6659860  44.2424660  35.0625780   8.0711060  34.6923450
  34.4201940   7.4166680  34.9667170  34.6756440   8.4766150  33.9164120
  30.6412260   5.3996490  38.5395140  30.9936080   4.8024620  37.8796510
  29.7574590   5.0740720  38.7103390  26.7275540   6.1594180  35.9465550
  27.4146670   6.7063390  36.3273140  25.9407960   6.7034910  35.9815160
  18.8667940   1.7767000  31.4382630  19.7362790   2.0591800  31.7218550
  18.3758260   2.5902870  31.3231440  26.0302750   3.1640210  35.5590910
  26.4865530   3.9745460  35.7851100  25.6790960   2.8463350  36.3909400
  28.3335360   8.6746550  42.7883210  28.9777580   8.8805930  43.4656630
  28.6964800   7.9134950  42.3354060  29.6067440   6.6778900  41.5060660
  30.2489670   5.9772060  41.6192830  30.1316790   7.4577340  41.3257550
  33.4523160   6.9627520  31.2299800  33.2260740   6.2457960  31.8224440
  33.0619360   6.7139960  30.3921550  31.3805060   7.4773800  44.7096720
  31.7161300   8.0640490  45.3874640  30.4605400   7.3466510  44.9394510
  19.2339190  10.9894380  32.0044260  19.5936830  11.5883720  31.3501530
  19.0931530  11.5354270  32.7779290  33.0339410   4.8799460  32.8913960
  32.7461110   5.3412150  33.6791840  33.8291580   4.4197230  33.1598180
  19.2181050   9.2549240  46.4786660  19.3272170   8.3143980  46.3382050
  18.5661610   9.5203990  45.8300390  27.2093640   7.5265130  47.8784780
  26.8890510   6.8074370  48.4230470  26.5352000   8.2020200  47.9520840
  25.2507810   8.3725580  32.8217930  25.2417910   9.1055270  32.2062440
  24.3306170   8.1257160  32.9144890  20.8514450   3.5940470  33.5664690
  20.2442400   4.3339370  33.5759990  21.3263800   3.6839830  32.7402890
  28.2367410   8.4353820  31.4843120  28.3379390   8.2317810  30.5545100
  27.3369150   8.1812100  31.6890900  26.8785520  10.9540140  36.1790790
  27.1327020  10.9161530  35.2570160  25.9298000  10.8273470  36.1719040
  22.8619740   3.5551620  31.3153260  23.6283010   3.4432980  31.8778690
  22.9394430   2.8589590  30.6630030  34.8863680   9.0440870  39.4303560
  35.0111100   9.8672040  39.9027370  35.7529240   8.8331600  39.0827710
  22.3581210  11.1372080  39.1020690  23.0943690  10.5887540  39.3729260
  22.7422130  12.0028090  38.9626680  19.2426690   7.2045650  34.9762200
  18.3166470   7.4466790  34.9667610  19.7083120   8.0319910  34.8546950
  21.3639490  10.3218150  48.2906270  22.1652220  10.6430200  48.7041670
  20.8491310   9.9613730  49.0126180  25.4683520  10.3102390  30.9246260
  26.2612130  10.5991220  30.4728050  24.9487870   9.8794560  30.2458740
  30.2004120   6.4298020  48.2381680  29.5942280   6.4529620  47.4977430
  29.8958230   5.6981060  48.7748930  31.6304490  10.1578310  46.8491090
  32.5826240  10.0736330  46.7991330  31.4832710  10.8220020  47.5224880
  34.5213690   9.5372520  32.3483000  34.2355200   9.1237660  31.5337180
  34.3233240  10.4660230  32.2283520  19.0837300   2.8091610  47.2342320
  19.5876320   2.2298890  47.8058550  18.3444720   3.0931840  47.7718690
  25.9860920   5.5305800  30.7888610  25.8811560   4.9158150  31.5149990
  25.8185140   5.0071690  30.0051620  26.1375240   4.2162600  46.7677840
  25.3720910   4.7847600  46.6832510  26.3191200   3.9238810  45.8746070
  29.2263650   4.5925830  31.3930600  28.6773750   5.0395130  32.0373340
  29.8482910   4.0875080  31.9168270  33.2798590   5.9467930  47.3252860
  34.0208060   6.2843690  46.8220320  32.5171270   6.1159990  46.7722630
  24.8938770   3.5516750  33.2895900  25.3155190   3.3856620  34.1327290
  25.0189610   2.7416980  32.7951040  27.4066410   2.5754360  30.5373000
  27.9272070   1.8603380  30.1714150  28.0534810   3.2140230  30.8373510
  31.9544250   3.9982760  45.8608070  32.3685270   4.1527840  46.7098490
  31.0195250   4.1237980  46.0233850  26.7159480   3.9503240  43.8304000
  27.1347590   4.7935970  43.6580240  25.7968110   4.0875280  43.6010780
  31.3911280   2.2356610  43.7904350  30.8646500   2.7599230  43.1869490
  31.7342620   2.8684000  44.4214080  24.5666900  10.2556250  44.9461730
  24.0287990  10.9802310  44.6270430  24.8200860   9.7786590  44.1559070
  27.4229110  11.4907460  45.2048380  27.3487810  12.3942600  45.5120750
  26.5207950  11.1719360  45.1770450  27.9714440  10.6565970  32.8274740
  28.8665230  10.9950940  32.8493500  28.0032070   9.9345380  32.1999020
  21.6110600   6.0293020  31.0561740  22.0485470   6.5722690  31.7119320
  22.0958330   5.2039970  31.0658080  18.8256400   8.8182050  38.5082000
  19.1559410   7.9503110  38.2760640  19.2547400   9.0240570  39.3386960
  23.4218320   7.1491060  36.1683970  23.1213860   7.0256030  37.0687880
  23.3155810   6.2899650  35.7599700  19.3146610   9.6852640  41.2463630
  18.8777600   9.8653440  42.0787780  19.8824290  10.4427260  41.1045350
  34.9508790   9.1869640  45.5340940  34.3510780   9.2462200  44.7904860
  35.0802690   8.2474620  45.6637790  36.1910240   6.9287460  30.8710650
  35.3603200   6.9964110  31.3417880  36.3682070   7.8191580  30.5677510
  35.6466700   3.6734940  33.3744850  36.4085610   4.2431590  33.4804540
  35.6621070   3.1062140  34.1453160  19.1471040   2.1972870  37.6052510
  18.4919880   1.9284510  36.9612210  19.9848990   2.0877350  37.1554490
  36.6526670   4.5285040  38.2186780  37.0235500   3.7452360  37.8122750
  37.2928600   5.2174140  38.0404080  33.6360430   5.9121620  43.6317100
  32.8220270   6.3418780  43.8942890  34.0434630   6.5240030  43.0186150
  35.6985870   3.9669310  30.5317370  35.9734710   4.8748190  30.4036590
  35.5096610   3.9031840  31.4679360  20.1846970   2.5825440  42.1455850
  20.5520010   2.4952840  43.0251870  19.6157790   1.8191990  42.0462710
  33.6936480  10.6640220  37.1585370  34.2895550  10.3424790  36.4819790
  33.9514630  10.1912040  37.9498640  21.5999050   7.0958130  47.3076000
  21.5568680   6.7251040  48.1890460  21.7310060   8.0335700  47.4477820
  25.3005080   8.6517720  42.9085720  25.0596440   8.9192280  42.0216240
  26.2407720   8.8223450  42.9636580  36.5609240  10.6712100  43.7096360
  36.0667520  11.0680970  42.9923490  35.9522530  10.0461310  44.1033640
  21.4387080  10.0420380  44.4273780  20.8447400   9.9105080  45.1663820
  21.4310920   9.2058520  43.9615880  34.2448690  11.3135520  40.9883100
  33.7851660  12.0651330  40.6141120  33.6161150  10.5941990  40.9297900
  21.0699310   7.4078760  43.3781820  20.3433370   6.7884050  43.3107770
  21.1308460   7.8019370  42.5079900  24.6744410   9.6223760  40.1631230
  25.1909430   9.0111120  39.6379490  25.3241790  10.1252540  40.6542240
  27.4139910  10.5132250  40.9900210  27.7017720  10.2586550  40.1133220
  27.9263130   9.9609610  41.5805780  19.3529310  10.7253150  36.5878580
  19.1851350  10.0923830  37.2860470  18.4863820  10.9312550  36.2372770
  20.9592010   9.4186380  34.0328720  20.4339630   9.7994410  33.3290680
  20.8836590  10.0437150  34.7538430  27.4812270  11.4348350  48.3568410
  28.4079580  11.1992620  48.4004370  27.4662700  12.2620350  47.8754440
  35.7157330  10.9773920  35.3542660  35.8909520  10.2911660  34.7103580
  35.0178900  11.5020970  34.9619330  23.5584980  11.3668760  32.9077970
  24.2903800  11.0828040  32.3601860  23.8178650  11.1282040  33.7977350
  22.7199770   7.4833490  32.9124300  22.0908650   7.9518590  33.4610130
  22.8347600   6.6382710  33.3470490  34.0489830  10.6618210  48.1809450
  34.8415150  10.1667440  47.9735410  34.3422980  11.3408350  48.7885060
  28.3067530   3.3118170  20.9434770  27.5309630   2.8318610  21.2333340
  28.9580460   2.6323820  20.7690930  22.3233360   3.6237980  21.8210530
  21.4918240   3.3686690  22.2207040  22.9314340   3.6948750  22.5568450
  32.3274960   7.7178360  19.7233900  31.8656490   6.9465600  20.0521070
  33.1400510   7.7444430  20.2286350  22.3034620   7.6578070  22.0168550
  22.6062660   6.7675810  21.8378770  23.0478210   8.2148290  21.7890800
  28.5538270  10.0036370  19.3437890  27.9349710  10.4593870  18.7732330
  29.4090050  10.1587830  18.9427590  27.7476520   5.9875360  20.9504930
  27.6784800   5.0465300  20.7894060  28.5096380   6.0776770  21.5227500
  29.4201620   4.8875610  16.7369800  28.8018890   5.3525060  16.1732520
  29.9324870   5.5803090  17.1539310  24.2833380   4.4151480  23.4153400
  23.9502760   5.0420400  24.0574470  24.4600060   4.9413360  22.6355070
  23.4952480   6.3832280  25.2302580  24.1126480   7.0583360  24.9487030
  22.6345600   6.7920260  25.1390080  18.7884820   5.5732140  14.1109430
  18.4112800   6.0619240  13.3794330  19.0457890   6.2457420  14.7415960
  34.4130070   7.8471690  23.1457220  33.7293590   8.5170800  23.1373890
  34.9524360   8.0452340  22.3802080  31.9488810   9.6915820  21.8602400
  31.9615970   9.2878110  20.9924660  31.3964030  10.4663110  21.7563830
  33.2434230   6.4132040  16.9492570  33.1330560   5.4706370  17.0741990
  33.2402480   6.7747680  17.8355330  31.3474250   4.5945660  23.1885010
  31.7643040   4.3805770  22.3538470  32.0714070   4.8518450  23.7593630
  28.7854510   2.0397360  16.3055060  27.8583790   1.9734740  16.5343530
  28.9379330   2.9777490  16.1910300  35.2936350   2.9932880  23.2801250
  34.4654980   3.0625970  22.8051380  35.8886830   3.5787190  22.8117080
  32.8151800   3.6017660  16.8090310  32.1964220   3.2637210  16.1616610
  32.7976250   2.9577420  17.5169500  24.3911150   2.5662100  19.0874790
  23.9868150   1.8539350  18.5920690  24.4774270   2.2215340  19.9762830
  24.8592850   6.2529660  21.2514000  24.5621140   5.6475130  20.5721780
  25.8092670   6.2906970  21.1403360  32.9478460   9.8261530  24.9137100
  32.4709020  10.6333720  24.7209710  32.2640250   9.1739860  25.0663310
  23.9511280   5.9911350  27.9021800  23.0539810   6.2151320  28.1495200
  23.9764150   6.1146290  26.9533200  30.9916500   2.8404470  13.8163060
  31.4309780   2.0026900  13.6700880  31.7044920   3.4733870  13.9027200
  22.7782500   2.8624670  26.4779170  22.6390270   3.7347470  26.8466570
  21.8963860   2.5197480  26.3327110  29.1011880   7.7800540  17.7844300
  29.5407790   8.5224870  17.3699690  29.0398770   8.0227110  18.7083260
  24.5762850   8.8046370  28.6864320  24.5478280   9.2089320  27.8192750
  24.4127820   7.8756730  28.5235920  36.5277670   9.5873470  29.9828490
  37.0037390  10.0656360  30.6617570  37.1484830   9.5190960  29.2573990
  18.7301150   4.6322220  22.3950080  18.8081570   4.7670990  21.4505800
  19.3442830   3.9238110  22.5878200  19.9748780   6.3322410  18.8056260
  19.5676860   6.4737000  17.9509860  20.8661790   6.0482570  18.6027470
  35.9310920   6.7786320  27.1428500  36.0573980   6.5398200  26.2245680
  35.9732300   5.9470860  27.6150580  29.7927660  10.4814320  25.7123310
  30.3072330  10.3922330  26.5145740  28.9496740  10.8274020  26.0051220
  31.7682060  10.7669660  15.1407310  31.6083200  10.4772600  16.0389140
  31.6028770   9.9909790  14.6052540  24.2470440  10.5468190  16.9178930
  24.0712920   9.6303730  16.7046730  23.3926180  10.9055480  17.1576730
  31.4708190   8.2757220  13.7005310  30.7773350   8.2734510  13.0407590
  32.2131050   7.8516540  13.2699480  31.0358120   9.9019930  17.7753800
  31.4915070   9.1209310  18.0892420  31.3750640  10.6126750  18.3194980
  18.7860670   5.6736390  24.9344540  18.9491710   5.2041750  24.1163910
  19.2513120   5.1659950  25.5993380  20.3599650   5.0487820  27.0940350
  19.9754440   4.4081490  27.6923310  20.6711840   5.7523940  27.6635080
  26.5096790   1.8964360  22.5748970  26.8766920   1.4222930  23.3210310
  26.3201850   2.7705930  22.9157310  22.8277950   5.1433990  15.4900030
  22.0540210   4.6031610  15.3298750  23.5572580   4.6240600  15.1517790
  33.5865930   4.1399350  21.2826420  34.3065050   4.6354640  20.8922530
  33.3847750   3.4617240  20.6380290  28.9684730   4.2108410  27.1695420
  28.9022040   3.2904080  26.9153010  28.3389870   4.3083850  27.8840060
  22.8715350   4.8114370  19.1278840  23.3894020   4.0082630  19.0735730
  22.4199370   4.7493510  19.9695670  27.7584850   6.0780650  14.4006140
  28.1000550   6.8222880  13.9049460  26.9297560   6.3911770  14.7630970
  23.5573010   2.2359980  28.9244090  23.2573150   2.3817160  28.0271910
  24.3284250   1.6765270  28.8317480  28.9001460   7.0328980  26.9199220
  28.9146000   6.1009940  26.7018130  28.1926560   7.1188740  27.5588990
  35.1112670   3.6736320  26.2667800  34.3860860   4.2665100  26.0697190
  35.6388130   3.6659860  25.4681170  35.0625780   8.0711060  15.9179960
  34.4201940   7.4166680  16.1923680  34.6756440   8.4766150  15.1420630
  30.6412260   5.3996490  19.7651650  30.9936080   4.8024620  19.1053020
  29.7574590   5.0740720  19.9359900  26.7275540   6.1594180  17.1722060
  27.4146670   6.7063390  17.5529650  25.9407960   6.7034910  17.2071670
  18.8667940   1.7767000  12.6639140  19.7362790   2.0591800  12.9475060
  18.3758260   2.5902870  12.5487950  26.0302750   3.1640210  16.7847420
  26.4865530   3.9745460  17.0107610  25.6790960   2.8463350  17.6165910
  28.3335360   8.6746550  24.0139720  28.9777580   8.8805930  24.6913140
  28.6964800   7.9134950  23.5610570  29.6067440   6.6778900  22.7317170
  30.2489670   5.9772060  22.8449340  30.1316790   7.4577340  22.5514060
  33.4523160   6.9627520  12.4556310  33.2260740   6.2457960  13.0480950
  33.0619360   6.7139960  11.6178060  31.3805060   7.4773800  25.9353230
  31.7161300   8.0640490  26.6131150  30.4605400   7.3466510  26.1651020
  19.2339190  10.9894380  13.2300770  19.5936830  11.5883720  12.5758040
  19.0931530  11.5354270  14.0035800  33.0339410   4.8799460  14.1170470
  32.7461110   5.3412150  14.9048350  33.8291580   4.4197230  14.3854690
  19.2181050   9.2549240  27.7043170  19.3272170   8.3143980  27.5638560
  18.5661610   9.5203990  27.0556900  27.2093640   7.5265130  29.1041290
  26.8890510   6.8074370  29.6486980  26.5352000   8.2020200  29.1777350
  25.2507810   8.3725580  14.0474440  25.2417910   9.1055270  13.4318950
  24.3306170   8.1257160  14.1401400  20.8514450   3.5940470  14.7921200
  20.2442400   4.3339370  14.8016500  21.3263800   3.6839830  13.9659400
  28.2367410   8.4353820  12.7099630  28.3379390   8.2317810  11.7801610
  27.3369150   8.1812100  12.9147410  26.8785520  10.9540140  17.4047300
  27.1327020  10.9161530  16.4826670  25.9298000  10.8273470  17.3975550
  22.8619740   3.5551620  12.5409770  23.6283010   3.4432980  13.1035200
  22.9394430   2.8589590  11.8886540  34.8863680   9.0440870  20.6560070
  35.0111100   9.8672040  21.1283880  35.7529240   8.8331600  20.3084220
  22.3581210  11.1372080  20.3277200  23.0943690  10.5887540  20.5985770
  22.7422130  12.0028090  20.1883190  19.2426690   7.2045650  16.2018710
  18.3166470   7.4466790  16.1924120  19.7083120   8.0319910  16.0803460
  21.3639490  10.3218150  29.5162780  22.1652220  10.6430200  29.9298180
  20.8491310   9.9613730  30.2382690  25.4683520  10.3102390  12.1502770
  26.2612130  10.5991220  11.6984560  24.9487870   9.8794560  11.4715250
  30.2004120   6.4298020  29.4638190  29.5942280   6.4529620  28.7233940
  29.8958230   5.6981060  30.0005440  31.6304490  10.1578310  28.0747600
  32.5826240  10.0736330  28.0247840  31.4832710  10.8220020  28.7481390
  34.5213690   9.5372520  13.5739510  34.2355200   9.1237660  12.7593690
  34.3233240  10.4660230  13.4540030  19.0837300   2.8091610  28.4598830
  19.5876320   2.2298890  29.0315060  18.3444720   3.0931840  28.9975200
  25.9860920   5.5305800  12.0145120  25.8811560   4.9158150  12.7406500
  25.8185140   5.0071690  11.2308130  26.1375240   4.2162600  27.9934350
  25.3720910   4.7847600  27.9089020  26.3191200   3.9238810  27.1002580
  29.2263650   4.5925830  12.6187110  28.6773750   5.0395130  13.2629850
  29.8482910   4.0875080  13.1424780  33.2798590   5.9467930  28.5509370
  34.0208060   6.2843690  28.0476830  32.5171270   6.1159990  27.9979140
  24.8938770   3.5516750  14.5152410  25.3155190   3.3856620  15.3583800
  25.0189610   2.7416980  14.0207550  27.4066410   2.5754360  11.7629510
  27.9272070   1.8603380  11.3970660  28.0534810   3.2140230  12.0630020
  31.9544250   3.9982760  27.0864580  32.3685270   4.1527840  27.9355000
  31.0195250   4.1237980  27.2490360  26.7159480   3.9503240  25.0560510
  27.1347590   4.7935970  24.8836750  25.7968110   4.0875280  24.8267290
  31.3911280   2.2356610  25.0160860  30.8646500   2.7599230  24.4126000
  31.7342620   2.8684000  25.6470590  24.5666900  10.2556250  26.1718240
  24.0287990  10.9802310  25.8526940  24.8200860   9.7786590  25.3815580
  27.4229110  11.4907460  26.4304890  27.3487810  12.3942600  26.7377260
  26.5207950  11.1719360  26.4026960  27.9714440  10.6565970  14.0531250
  28.8665230  10.9950940  14.0750010  28.0032070   9.9345380  13.4255530
  21.6110600   6.0293020  12.2818250  22.0485470   6.5722690  12.9375830
  22.0958330   5.2039970  12.2914590  18.8256400   8.8182050  19.7338510
  19.1559410   7.9503110  19.5017150  19.2547400   9.0240570  20.5643470
  23.4218320   7.1491060  17.3940480  23.1213860   7.0256030  18.2944390
  23.3155810   6.2899650  16.9856210  19.3146610   9.6852640  22.4720140
  18.8777600   9.8653440  23.3044290  19.8824290  10.4427260  22.3301860
  34.9508790   9.1869640  26.7597450  34.3510780   9.2462200  26.0161370
  35.0802690   8.2474620  26.8894300  36.1910240   6.9287460  12.0967160
  35.3603200   6.9964110  12.5674390  36.3682070   7.8191580  11.7934020
  35.6466700   3.6734940  14.6001360  36.4085610   4.2431590  14.7061050
  35.6621070   3.1062140  15.3709670  19.1471040   2.1972870  18.8309020
  18.4919880   1.9284510  18.1868720  19.9848990   2.0877350  18.3811000
  36.6526670   4.5285040  19.4443290  37.0235500   3.7452360  19.0379260
  37.2928600   5.2174140  19.2660590  33.6360430   5.9121620  24.8573610
  32.8220270   6.3418780  25.1199400  34.0434630   6.5240030  24.2442660
  35.6985870   3.9669310  11.7573880  35.9734710   4.8748190  11.6293100
  35.5096610   3.9031840  12.6935870  20.1846970   2.5825440  23.3712360
  20.5520010   2.4952840  24.2508380  19.6157790   1.8191990  23.2719220
  33.6936480  10.6640220  18.3841880  34.2895550  10.3424790  17.7076300
  33.9514630  10.1912040  19.1755150  21.5999050   7.0958130  28.5332510
  21.5568680   6.7251040  29.4146970  21.7310060   8.0335700  28.6734330
  25.3005080   8.6517720  24.1342230  25.0596440   8.9192280  23.2472750
  26.2407720   8.8223450  24.1893090  36.5609240  10.6712100  24.9352870
  36.0667520  11.0680970  24.2180000  35.9522530  10.0461310  25.3290150
  21.4387080  10.0420380  25.6530290  20.8447400   9.9105080  26.3920330
  21.4310920   9.2058520  25.1872390  34.2448690  11.3135520  22.2139610
  33.7851660  12.0651330  21.8397630  33.6161150  10.5941990  22.1554410
  21.0699310   7.4078760  24.6038330  20.3433370   6.7884050  24.5364280
  21.1308460   7.8019370  23.7336410  24.6744410   9.6223760  21.3887740
  25.1909430   9.0111120  20.8636000  25.3241790  10.1252540  21.8798750
  27.4139910  10.5132250  22.2156720  27.7017720  10.2586550  21.3389730
  27.9263130   9.9609610  22.8062290  19.3529310  10.7253150  17.8135090
  19.1851350  10.0923830  18.5116980  18.4863820  10.9312550  17.4629280
  20.9592010   9.4186380  15.2585230  20.4339630   9.7994410  14.5547190
  20.8836590  10.0437150  15.9794940  27.4812270  11.4348350  29.5824920
  28.4079580  11.1992620  29.6260880  27.4662700  12.2620350  29.1010950
  35.7157330  10.9773920  16.5799170  35.8909520  10.2911660  15.9360090
  35.0178900  11.5020970  16.1875840  23.5584980  11.3668760  14.1334480
  24.2903800  11.0828040  13.5858370  23.8178650  11.1282040  15.0233860
  22.7199770   7.4833490  14.1380810  22.0908650   7.9518590  14.6866640
  22.8347600   6.6382710  14.5727000  34.0489830  10.6618210  29.4065960
  34.8415150  10.1667440  29.1991920  34.3422980  11.3408350  30.0141570
  28.3067530   3.3118170   2.1691280  27.5309630   2.8318610   2.4589850
  28.9580460   2.6323820   1.9947440  22.3233360   3.6237980   3.0467040
  21.4918240   3.3686690   3.4463550  22.9314340   3.6948750   3.7824960
  22.3034620   7.6578070   3.2425060  22.6062660   6.7675810   3.0635280
  23.0478210   8.2148290   3.0147310  27.7476520   5.9875360   2.1761440
  27.6784800   5.0465300   2.0150570  28.5096380   6.0776770   2.7484010
  24.2833380   4.4151480   4.6409910  23.9502760   5.0420400   5.2830980
  24.4600060   4.9413360   3.8611580  23.4952480   6.3832280   6.4559090
  24.1126480   7.0583360   6.1743540  22.6345600   6.7920260   6.3646590
  34.4130070   7.8471690   4.3713730  33.7293590   8.5170800   4.3630400
  34.9524360   8.0452340   3.6058590  31.9488810   9.6915820   3.0858910
  31.9615970   9.2878110   2.2181170  31.3964030  10.4663110   2.9820340
  31.3474250   4.5945660   4.4141520  31.7643040   4.3805770   3.5794980
  32.0714070   4.8518450   4.9850140  35.2936350   2.9932880   4.5057760
  34.4654980   3.0625970   4.0307890  35.8886830   3.5787190   4.0373590
  24.8592850   6.2529660   2.4770510  24.5621140   5.6475130   1.7978290
  25.8092670   6.2906970   2.3659870  32.9478460   9.8261530   6.1393610
  32.4709020  10.6333720   5.9466220  32.2640250   9.1739860   6.2919820
  23.9511280   5.9911350   9.1278310  23.0539810   6.2151320   9.3751710
  23.9764150   6.1146290   8.1789710  22.7782500   2.8624670   7.7035680
  22.6390270   3.7347470   8.0723080  21.8963860   2.5197480   7.5583620
  24.5762850   8.8046370   9.9120830  24.5478280   9.2089320   9.0449260
  24.4127820   7.8756730   9.7492430  36.5277670   9.5873470  11.2085000
  37.0037390  10.0656360  11.8874080  37.1484830   9.5190960  10.4830500
  18.7301150   4.6322220   3.6206590  18.8081570   4.7670990   2.6762310
  19.3442830   3.9238110   3.8134710  35.9310920   6.7786320   8.3685010
  36.0573980   6.5398200   7.4502190  35.9732300   5.9470860   8.8407090
  29.7927660  10.4814320   6.9379820  30.3072330  10.3922330   7.7402250
  28.9496740  10.8274020   7.2307730  18.7860670   5.6736390   6.1601050
  18.9491710   5.2041750   5.3420420  19.2513120   5.1659950   6.8249890
  20.3599650   5.0487820   8.3196860  19.9754440   4.4081490   8.9179820
  20.6711840   5.7523940   8.8891590  26.5096790   1.8964360   3.8005480
  26.8766920   1.4222930   4.5466820  26.3201850   2.7705930   4.1413820
  33.5865930   4.1399350   2.5082930  34.3065050   4.6354640   2.1179040
  33.3847750   3.4617240   1.8636800  28.9684730   4.2108410   8.3951930
  28.9022040   3.2904080   8.1409520  28.3389870   4.3083850   9.1096570
  23.5573010   2.2359980  10.1500600  23.2573150   2.3817160   9.2528420
  24.3284250   1.6765270  10.0573990  28.9001460   7.0328980   8.1455730
  28.9146000   6.1009940   7.9274640  28.1926560   7.1188740   8.7845500
  35.1112670   3.6736320   7.4924310  34.3860860   4.2665100   7.2953700
  35.6388130   3.6659860   6.6937680  28.3335360   8.6746550   5.2396230
  28.9777580   8.8805930   5.9169650  28.6964800   7.9134950   4.7867080
  29.6067440   6.6778900   3.9573680  30.2489670   5.9772060   4.0705850
  30.1316790   7.4577340   3.7770570  31.3805060   7.4773800   7.1609740
  31.7161300   8.0640490   7.8387660  30.4605400   7.3466510   7.3907530
  19.2181050   9.2549240   8.9299680  19.3272170   8.3143980   8.7895070
  18.5661610   9.5203990   8.2813410  27.2093640   7.5265130  10.3297800
  26.8890510   6.8074370  10.8743490  26.5352000   8.2020200  10.4033860
  21.3639490  10.3218150  10.7419290  22.1652220  10.6430200  11.1554690
  20.8491310   9.9613730  11.4639200  30.2004120   6.4298020  10.6894700
  29.5942280   6.4529620   9.9490450  29.8958230   5.6981060  11.2261950
  31.6304490  10.1578310   9.3004110  32.5826240  10.0736330   9.2504350
  31.4832710  10.8220020   9.9737900  19.0837300   2.8091610   9.6855340
  19.5876320   2.2298890  10.2571570  18.3444720   3.0931840  10.2231710
  26.1375240   4.2162600   9.2190860  25.3720910   4.7847600   9.1345530
  26.3191200   3.9238810   8.3259090  33.2798590   5.9467930   9.7765880
  34.0208060   6.2843690   9.2733340  32.5171270   6.1159990   9.2235650
  31.9544250   3.9982760   8.3121090  32.3685270   4.1527840   9.1611510
  31.0195250   4.1237980   8.4746870  26.7159480   3.9503240   6.2817020
  27.1347590   4.7935970   6.1093260  25.7968110   4.0875280   6.0523800
  31.3911280   2.2356610   6.2417370  30.8646500   2.7599230   5.6382510
  31.7342620   2.8684000   6.8727100  24.5666900  10.2556250   7.3974750
  24.0287990  10.9802310   7.0783450  24.8200860   9.7786590   6.6072090
  27.4229110  11.4907460   7.6561400  27.3487810  12.3942600   7.9633770
  26.5207950  11.1719360   7.6283470  19.3146610   9.6852640   3.6976650
  18.8777600   9.8653440   4.5300800  19.8824290  10.4427260   3.5558370
  34.9508790   9.1869640   7.9853960  34.3510780   9.2462200   7.2417880
  35.0802690   8.2474620   8.1150810  33.6360430   5.9121620   6.0830120
  32.8220270   6.3418780   6.3455910  34.0434630   6.5240030   5.4699170
  20.1846970   2.5825440   4.5968870  20.5520010   2.4952840   5.4764890
  19.6157790   1.8191990   4.4975730  21.5999050   7.0958130   9.7589020
  21.5568680   6.7251040  10.6403480  21.7310060   8.0335700   9.8990840
  25.3005080   8.6517720   5.3598740  25.0596440   8.9192280   4.4729260
  26.2407720   8.8223450   5.4149600  36.5609240  10.6712100   6.1609380
  36.0667520  11.0680970   5.4436510  35.9522530  10.0461310   6.5546660
  21.4387080  10.0420380   6.8786800  20.8447400   9.9105080   7.6176840
  21.4310920   9.2058520   6.4128900  34.2448690  11.3135520   3.4396120
  33.7851660  12.0651330   3.0654140  33.6161150  10.5941990   3.3810920
  21.0699310   7.4078760   5.8294840  20.3433370   6.7884050   5.7620790
  21.1308460   7.8019370   4.9592920  24.6744410   9.6223760   2.6144250
  25.1909430   9.0111120   2.0892510  25.3241790  10.1252540   3.1055260
  27.4139910  10.5132250   3.4413230  27.7017720  10.2586550   2.5646240
  27.9263130   9.9609610   4.0318800  27.4812270  11.4348350  10.8081430
  28.4079580  11.1992620  10.8517390  27.4662700  12.2620350  10.3267460
  34.0489830  10.6618210  10.6322470  34.8415150  10.1667440  10.4248430
  34.3422980  11.3408350  11.2398080  11.4006000  95.4056600  94.1599460
  11.3200050  94.4911210  93.8891170  10.9870420  95.9023670  93.4539170
   4.1343210  91.0388820  91.7365260   4.2409960  91.9392550  92.0434020
   3.2235570  90.9906790  91.4459910  13.7862320  90.1613630  93.2076160
  14.6071940  89.6710200  93.2501640  13.8196400  90.7511290  93.9608000
   7.6230260  87.8465980  94.6668900   7.9305240  87.2912870  93.9504400
   6.6930960  87.9810440  94.4841890  10.0111020  95.9114810  91.4029020
   9.0840300  95.8452190  91.6317490  10.1635840  96.8494940  91.2884260
   9.9980100  92.1831810  88.3996180   9.0583770  92.3445770  88.4848640
  10.3163360  92.9017490  87.8532170   5.6167660  96.4379550  94.1848750
   5.2124660  95.7256800  93.6894650   5.7030780  96.0932790  95.0736790
  15.7990150  87.9664730  87.2278060  15.4862810  88.0591560  88.1277130
  16.5602620  88.5445760  87.1775490   2.3172290  95.3324530  91.6855400
   2.1969890  96.0586620  91.0736670   2.0073180  94.5627440  91.2083310
   4.7835950  88.6759600  95.0679070   4.3404100  89.4569140  94.7363590
   5.3420940  88.9989490  95.7750010   7.8994770  88.2970300  89.9484900
   7.2748950  88.2930170  90.6738210   7.8124890  87.4301260  89.5520870
   4.5750170  93.7993170  92.7960320   4.3491090  93.5830340  93.7006940
   3.7942700  94.2321630  92.4506290  11.8047930  93.8056540  91.3950970
  11.2056820  94.5292340  91.2114590  12.3527540  93.7433320  90.6127420
  10.4112800  92.4420080  93.4254250  10.8042370  92.7592280  92.6122940
  10.7729650  91.5631960  93.5398770   7.4345330  91.7080030  95.9257520
   7.4381390  91.2669980  95.0762060   8.3296450  92.0297360  96.0329340
   3.2847710  91.5906520  94.8851730   2.9447760  92.0681750  95.6418780
   2.5225030  91.1371640  94.5252830   7.4965480  92.7092110  88.9164280
   7.6178300  92.6678590  89.8650100   7.1113990  93.5716260  88.7611010
   6.5086980  95.0193250  88.3147580   5.9403880  94.5711500  87.6883490
   7.2175980  95.3786030  87.7812730  10.2732380  89.4054760  90.5229770
   9.4596990  88.9067930  90.4475080  10.0794330  90.2453010  90.1066120
  12.9880770  93.7774410  88.8191930  13.8760390  94.0891640  88.6443270
  12.9585860  92.9046660  88.4272510  15.2595040  95.0886250  88.2871790
  15.1758760  95.5200470  87.4368230  15.9789230  95.5484600  88.7198610
   3.1571040  87.3795310  92.3543900   3.0285670  87.3713210  93.3028820
   2.3333060  87.7178400  92.0034910  15.0165780  90.5865680  90.3739610
  14.3878940  90.6911350  89.6597840  14.5217700  90.8062460  91.1633490
   6.9849810  92.8651630  91.7897490   6.2765960  93.3337970  92.2311100
   7.2694290  92.2073640  92.4242680  11.0165240  89.5902290  93.2293280
  10.8933020  89.6088420  92.2802790  11.9649800  89.6381230  93.3491680
   5.1884830  91.1736710  89.1648200   6.0375360  91.6106860  89.0988390
   4.8216100  91.4856970  89.9920260  14.1094610  95.7449470  94.0779770
  13.1684750  95.7599700  94.2527460  14.4238680  94.9585430  94.5240070
   2.7823010  94.8594140  88.3216620   2.8626600  93.9121650  88.4334020
   3.6742760  95.1901020  88.4277280   8.6322920  96.4471810  86.8603470
   9.1528580  95.7320830  86.4944620   9.2791320  97.0857680  87.1603980
   5.0154180  93.4967430  86.5584530   4.8143240  92.6334790  86.9197870
   4.8446230  93.4100790  85.6206130  12.4942490  88.3075660  89.0871410
  12.7744780  87.4643560  89.4430830  11.7208220  88.5398770  89.6010160
   3.8136980  90.5968050  86.5462410   4.1162880  90.6035480  85.6381560
   4.5531570  90.2465910  87.0430070   7.0321910  89.5402670  87.5318610
   6.6843910  88.8626660  86.9521060   7.2334680  89.0792180  88.3462000
  13.3217990  90.8631610  88.1501470  13.7402870  90.6762590  87.3098130
  13.0154050  90.0110660  88.4604400  16.8207720  95.7755750  91.8477270
  16.4451320  95.0083680  91.4158560  16.0910840  96.1578450  92.3352200
  16.0958680  94.0013240  95.1484510  16.6196160  93.5075890  94.5174680
  16.6818100  94.1363600  95.8932080   1.7767000  88.3894120  86.8205340
   2.4995130  88.9303060  87.1386560   2.0491520  88.1157540  85.9446880
  15.5858650  93.2586590  91.0876920  16.0817770  93.0257460  91.8725800
  15.3874720  92.4198430  90.6714560  17.0145810  91.8947540  93.6214600
  16.9045090  91.7403580  94.5596870  17.7753400  91.3668480  93.3790010
  17.9036080  89.7255460  86.8620740  18.8285390  89.5936640  86.6539030
  17.8811870  89.8048280  87.8157190  17.9774570  90.4966120  89.4877450
  17.1826070  90.4311240  90.0170360  18.1817850  91.4316760  89.4762800
  14.4094500  88.8263000  95.9376280  14.8502590  88.7708100  95.0897880
  14.1402090  89.7421010  96.0086460  16.2733070  88.4578240  93.9485100
  16.2121470  87.5139460  93.8016120  17.0525100  88.5658330  94.4938560
   7.7427650  90.5426650  93.4043220   6.9302160  90.1683540  93.0639100
   8.2469290  89.7871730  93.7064410  12.2452630  87.2069100  94.6426290
  12.8482000  87.7789310  95.1174810  11.5045620  87.7708540  94.4200190
  15.3887230  87.6090660  89.9166570  15.5837860  88.5074110  90.1834000
  14.6017100  87.3777740  90.4099520   3.5738990  88.9551430  88.9542880
   4.1031750  88.1681230  88.8250830   4.2067310  89.6342620  89.1878410
   5.7676830  88.6926570  92.0088270   5.1379570  87.9913880  92.1758400
   5.2281970  89.4530700  91.7921430  11.4006000  95.4056600  75.3855970
  11.3200050  94.4911210  75.1147680  10.9870420  95.9023670  74.6795680
   9.5324040  97.1835620  77.2665240   8.7566140  96.7036060  77.5563810
  10.1836970  96.5041270  77.0921400  10.0038200  92.6663190  77.5004330
  10.3803020  91.7935070  77.3878000   9.9057710  93.0021890  76.6094770
   4.1343210  91.0388820  72.9621770   4.2409960  91.9392550  73.2690530
   3.2235570  90.9906790  72.6716420  13.7862320  90.1613630  74.4332670
  14.6071940  89.6710200  74.4758150  13.8196400  90.7511290  75.1864510
   5.9750940  94.0075190  77.2946950   6.4829160  94.5056160  77.9351970
   6.5064180  93.2310390  77.1186310  18.0761870  92.1780380  80.9976300
  17.3714040  92.5662090  80.4791410  18.3419790  92.8730670  81.5997230
   4.2587040  88.6473750  81.5610370   4.2605480  89.1646140  80.7556270
   3.4291350  88.1703930  81.5380300  14.0223800  92.1014010  77.2060210
  13.3179370  92.3898900  77.7863320  14.3835960  92.9114120  76.8459770
   3.9402370  90.3583710  79.5680820   4.2819180  91.2025760  79.2734690
   3.0018180  90.5067450  79.6846160  17.0910720  91.5468800  77.5969420
  16.1435630  91.5807780  77.7284850  17.4160710  92.3607750  77.9818780
   7.6230260  87.8465980  75.8925410   7.9305240  87.2912870  75.1760910
   6.6930960  87.9810440  75.7098400  10.0111020  95.9114810  72.6285530
   9.0840300  95.8452190  72.8574000  10.1635840  96.8494940  72.5140770
   9.9980100  92.1831810  69.6252690   9.0583770  92.3445770  69.7105150
  10.3163360  92.9017490  69.0788680  13.4834870  93.6519650  80.5486590
  13.0706050  94.4773360  80.8026580  12.7510820  93.0664690  80.3562950
   5.6167660  96.4379550  75.4105260   5.2124660  95.7256800  74.9151160
   5.7030780  96.0932790  76.2993300   4.3296280  93.2122760  79.1904300
   4.8810870  93.3218100  78.4157550   4.8439790  93.5860360  79.9059530
  15.7990150  87.9664730  68.4534570  15.4862810  88.0591560  69.3533640
  16.5602620  88.5445760  68.4032000   2.3172290  95.3324530  72.9111910
   2.1969890  96.0586620  72.2993180   2.0073180  94.5627440  72.4339820
  17.0091440  92.7036230  84.4308710  16.3935710  93.2115900  83.9024170
  16.6887860  91.8034560  84.3734650   4.7835950  88.6759600  76.2935580
   4.3404100  89.4569140  75.9620100   5.3420940  88.9989490  77.0006520
   9.0705760  91.5428120  81.8970900   8.6085130  91.7511140  82.7090840
   8.6683870  90.7287470  81.5941570  14.0710270  92.7637070  83.0267560
  13.2203860  92.4642820  83.3476630  13.9112060  93.0079080  82.1151380
  11.1659980  94.2638820  85.1266350  11.4913390  93.4302570  84.7868580
  11.9540310  94.7867340  85.2744680   7.8994770  88.2970300  71.1741410
   7.2748950  88.2930170  71.8994720   7.8124890  87.4301260  70.7777380
   6.8211850  89.2206930  78.1525180   7.1184180  90.1269760  78.0717200
   7.3697410  88.7325710  77.5384750   4.5750170  93.7993170  74.0216830
   4.3491090  93.5830340  74.9263450   3.7942700  94.2321630  73.6762800
  11.8047930  93.8056540  72.6207480  11.2056820  94.5292340  72.4371100
  12.3527540  93.7433320  71.8383930   7.0149380  94.6978750  84.6877100
   6.9192980  93.7573480  84.5377500   7.8581360  94.9193820  84.2925170
  10.4112800  92.4420080  74.6510760  10.8042370  92.7592280  73.8379450
  10.7729650  91.5631960  74.7655280   8.7204970  91.1927390  85.9107620
   8.0303290  90.9999590  86.5453710   9.4637270  91.4762030  86.4431920
  10.9967940  95.0325830  78.7461540  10.2649060  95.5412640  79.0951640
  10.5992280  94.2155810  78.4450320   7.4345330  91.7080030  77.1514030
   7.4381390  91.2669980  76.3018570   8.3296450  92.0297360  77.2585850
   3.2847710  91.5906520  76.1108240   2.9447760  92.0681750  76.8675290
   2.5225030  91.1371640  75.7509340   7.4965480  92.7092110  70.1420790
   7.6178300  92.6678590  71.0906610   7.1113990  93.5716260  69.9867520
  11.4593850  90.4859510  78.1584480  11.4766590  90.9368160  79.0026330
  11.2109430  89.5865150  78.3717920   6.5086980  95.0193250  69.5404090
   5.9403880  94.5711500  68.9140000   7.2175980  95.3786030  69.0069240
  14.8864600  87.8991690  83.9970860  15.2110370  87.1681350  84.5228840
  14.9221110  87.5805330  83.0951850   7.7353300  95.7681810  78.8979440
   8.1023430  95.2940380  79.6440780   7.5458360  96.6423380  79.2387780
   5.5252670  94.8090450  81.2163650   5.2209740  95.6882430  81.4414010
   6.4799130  94.8690240  81.2521090  10.2732380  89.4054760  71.7486280
   9.4596990  88.9067930  71.6731590  10.0794330  90.2453010  71.3322630
  12.9880770  93.7774410  70.0448440  13.8760390  94.0891640  69.8699780
  12.9585860  92.9046660  69.6529020   4.7829520  96.1077430  85.2474560
   4.4829660  96.2534610  84.3502380   5.5540760  95.5482720  85.1547950
  15.2595040  95.0886250  69.5128300  15.1758760  95.5200470  68.6624740
  15.9789230  95.5484600  69.9455120   3.1571040  87.3795310  73.5800410
   3.0285670  87.3713210  74.5285330   2.3333060  87.7178400  73.2291420
  11.6503750  91.6308740  80.7908560  12.0184570  90.8103950  81.1188130
  10.7901950  91.6910630  81.2064210  15.0165780  90.5865680  71.5996120
  14.3878940  90.6911350  70.8854350  14.5217700  90.8062460  72.3890000
   6.9849810  92.8651630  73.0154000   6.2765960  93.3337970  73.4567610
   7.2694290  92.2073640  73.6499190   8.6105740  94.2848330  81.0146530
   9.1090990  94.7594150  81.6798380   8.7528690  93.3611850  81.2216560
  11.0165240  89.5902290  74.4549790  10.8933020  89.6088420  73.5059300
  11.9649800  89.6381230  74.5748190   5.1884830  91.1736710  70.3904710
   6.0375360  91.6106860  70.3244900   4.8216100  91.4856970  71.2176770
  15.8172600  90.5016290  81.8574920  15.3146200  91.2421690  82.1968730
  16.6329260  90.8900290  81.5411710  14.1094610  95.7449470  75.3036280
  13.1684750  95.7599700  75.4783970  14.4238680  94.9585430  75.7496580
   2.7823010  94.8594140  69.5473130   2.8626600  93.9121650  69.6590530
   3.6742760  95.1901020  69.6533790   2.3416890  94.8238650  85.6779370
   2.3822230  94.5252520  86.5864600   3.1962390  95.2246260  85.5186890
   4.2822700  93.4030750  83.6453860   3.7519160  92.9121700  83.0177200
   4.9510770  93.8314950  83.1111790   8.6322920  96.4471810  68.0859980
   9.1528580  95.7320830  67.7201130   9.2791320  97.0857680  68.3860490
  13.6522930  95.2096370  85.4134200  14.2343700  94.4548690  85.3254680
  13.8284700  95.7403810  84.6365680   4.7695000  90.3693120  83.7251150
   4.6751870  89.7513870  83.0002020   4.1892390  91.0959410  83.4981060
   7.5356440  88.9266360  80.7578540   7.0873740  88.9490620  79.9124090
   6.9021640  88.5285380  81.3548840  10.2779890  95.5536870  82.7628820
  10.3976100  94.9578010  83.5023660  11.1373890  95.5906560  82.3430120
  12.6167790  96.1074060  81.3391330  12.0903010  96.6316680  80.7356470
  12.9599130  96.7401450  81.9701060   5.0154180  93.4967430  67.7841040
   4.8143240  92.6334790  68.1454380   4.8446230  93.4100790  66.8462640
   7.0448660  92.0958220  84.0204640   7.6348350  91.7874070  84.7082460
   6.2268900  91.6237970  84.1764540  11.8642090  91.7124030  84.2537660
  11.1757610  91.0505570  84.1887650  12.5848110  91.2662300  84.6986120
  12.4942490  88.3075660  70.3127920  12.7744780  87.4643560  70.6687340
  11.7208220  88.5398770  70.8266670   3.8136980  90.5968050  67.7718920
   4.1162880  90.6035480  66.8638070   4.5531570  90.2465910  68.2686580
   7.0321910  89.5402670  68.7575120   6.6843910  88.8626660  68.1777570
   7.2334680  89.0792180  69.5718510  13.3217990  90.8631610  69.3757980
  13.7402870  90.6762590  68.5354640  13.0154050  90.0110660  69.6860910
  16.8207720  95.7755750  73.0733780  16.4451320  95.0083680  72.6415070
  16.0910840  96.1578450  73.5608710  16.2107340  94.9227270  82.7073300
  15.9793430  94.6940020  81.8071250  16.4711890  95.8426820  82.6618190
  14.6495410  90.1483700  85.4853000  15.5265590  90.1567100  85.8687000
  14.6616250  89.4114540  84.8745350  16.0958680  94.0013240  76.3741020
  16.6196160  93.5075890  75.7431190  16.6818100  94.1363600  77.1188590
  16.2748400  94.0853110  79.8960570  15.3251110  94.0516650  80.0105560
  16.4561410  94.9953220  79.6610340   1.7767000  88.3894120  68.0461850
   2.4995130  88.9303060  68.3643070   2.0491520  88.1157540  67.1703390
  15.5858650  93.2586590  72.3133430  16.0817770  93.0257460  73.0982310
  15.3874720  92.4198430  71.8971070  17.0145810  91.8947540  74.8471110
  16.9045090  91.7403580  75.7853380  17.7753400  91.3668480  74.6046520
  15.3611530  87.8341670  81.3054110  15.9983750  88.4475810  81.6713300
  15.5086420  87.8702330  80.3603340  17.9036080  89.7255460  68.0877250
  18.8285390  89.5936640  67.8795540  17.8811870  89.8048280  69.0413700
  17.9774570  90.4966120  70.7133960  17.1826070  90.4311240  71.2426870
  18.1817850  91.4316760  70.7019310   8.7316010  88.9867860  84.2129210
   8.6704900  89.5789690  84.9624620   9.6716390  88.8793820  84.0679470
  11.3690570  88.6437920  83.8521500  11.9830980  88.9617210  83.1902580
  11.9140130  88.1586510  84.4717360   1.8911830  87.3232180  83.9660560
   2.4394820  87.1420230  83.2026670   1.9567140  86.5326290  84.5016870
  12.1098610  87.2070060  80.1790790  11.2358450  87.5405170  79.9763720
  12.0009360  86.7343240  81.0042660  13.0170590  89.4140930  81.5632510
  12.6883950  88.5992690  81.1834240  13.9652890  89.3710740  81.4398200
   9.8573430  88.1239900  79.1183700   9.0745220  88.5985400  79.3980460
   9.5636360  87.2194730  79.0096880  14.4094500  88.8263000  77.1632790
  14.8502590  88.7708100  76.3154390  14.1402090  89.7421010  77.2342970
  16.2733070  88.4578240  75.1741610  16.2121470  87.5139460  75.0272630
  17.0525100  88.5658330  75.7195070   7.7427650  90.5426650  74.6299730
   6.9302160  90.1683540  74.2895610   8.2469290  89.7871730  74.9320920
  12.2452630  87.2069100  75.8682800  12.8482000  87.7789310  76.3431320
  11.5045620  87.7708540  75.6456700  15.3887230  87.6090660  71.1423080
  15.5837860  88.5074110  71.4090510  14.6017100  87.3777740  71.6356030
   3.5738990  88.9551430  70.1799390   4.1031750  88.1681230  70.0507340
   4.2067310  89.6342620  70.4134920   5.7676830  88.6926570  73.2344780
   5.1379570  87.9913880  73.4014910   5.2281970  89.4530700  73.0177940
   5.8932390  87.9710550  85.6697270   5.6116660  88.4744150  84.9058090
   6.2752090  87.1732300  85.3039400  12.4947850  87.3864130  86.2477740
  12.3813300  87.7058740  87.1429260  13.3117590  87.7876640  85.9515020
  11.4006000  95.4056600  56.6112480  11.3200050  94.4911210  56.3404190
  10.9870420  95.9023670  55.9052190   9.5324040  97.1835620  58.4921750
   8.7566140  96.7036060  58.7820320  10.1836970  96.5041270  58.3177910
  10.0038200  92.6663190  58.7260840  10.3803020  91.7935070  58.6134510
   9.9057710  93.0021890  57.8351280   4.1343210  91.0388820  54.1878280
   4.2409960  91.9392550  54.4947040   3.2235570  90.9906790  53.8972930
  13.7862320  90.1613630  55.6589180  14.6071940  89.6710200  55.7014660
  13.8196400  90.7511290  56.4121020   5.9750940  94.0075190  58.5203460
   6.4829160  94.5056160  59.1608480   6.5064180  93.2310390  58.3442820
  18.0761870  92.1780380  62.2232810  17.3714040  92.5662090  61.7047920
  18.3419790  92.8730670  62.8253740   4.2587040  88.6473750  62.7866880
   4.2605480  89.1646140  61.9812780   3.4291350  88.1703930  62.7636810
  14.0223800  92.1014010  58.4316720  13.3179370  92.3898900  59.0119830
  14.3835960  92.9114120  58.0716280   3.9402370  90.3583710  60.7937330
   4.2819180  91.2025760  60.4991200   3.0018180  90.5067450  60.9102670
  17.0910720  91.5468800  58.8225930  16.1435630  91.5807780  58.9541360
  17.4160710  92.3607750  59.2075290   7.6230260  87.8465980  57.1181920
   7.9305240  87.2912870  56.4017420   6.6930960  87.9810440  56.9354910
  10.0111020  95.9114810  53.8542040   9.0840300  95.8452190  54.0830510
  10.1635840  96.8494940  53.7397280   9.9980100  92.1831810  50.8509200
   9.0583770  92.3445770  50.9361660  10.3163360  92.9017490  50.3045190
  13.4834870  93.6519650  61.7743100  13.0706050  94.4773360  62.0283090
  12.7510820  93.0664690  61.5819460   5.6167660  96.4379550  56.6361770
   5.2124660  95.7256800  56.1407670   5.7030780  96.0932790  57.5249810
   4.3296280  93.2122760  60.4160810   4.8810870  93.3218100  59.6414060
   4.8439790  93.5860360  61.1316040  15.7990150  87.9664730  49.6791080
  15.4862810  88.0591560  50.5790150  16.5602620  88.5445760  49.6288510
   2.3172290  95.3324530  54.1368420   2.1969890  96.0586620  53.5249690
   2.0073180  94.5627440  53.6596330  17.0091440  92.7036230  65.6565220
  16.3935710  93.2115900  65.1280680  16.6887860  91.8034560  65.5991160
   4.7835950  88.6759600  57.5192090   4.3404100  89.4569140  57.1876610
   5.3420940  88.9989490  58.2263030   9.0705760  91.5428120  63.1227410
   8.6085130  91.7511140  63.9347350   8.6683870  90.7287470  62.8198080
  14.0710270  92.7637070  64.2524070  13.2203860  92.4642820  64.5733140
  13.9112060  93.0079080  63.3407890  11.1659980  94.2638820  66.3522860
  11.4913390  93.4302570  66.0125090  11.9540310  94.7867340  66.5001190
   7.8994770  88.2970300  52.3997920   7.2748950  88.2930170  53.1251230
   7.8124890  87.4301260  52.0033890   6.8211850  89.2206930  59.3781690
   7.1184180  90.1269760  59.2973710   7.3697410  88.7325710  58.7641260
   4.5750170  93.7993170  55.2473340   4.3491090  93.5830340  56.1519960
   3.7942700  94.2321630  54.9019310  11.8047930  93.8056540  53.8463990
  11.2056820  94.5292340  53.6627610  12.3527540  93.7433320  53.0640440
   7.0149380  94.6978750  65.9133610   6.9192980  93.7573480  65.7634010
   7.8581360  94.9193820  65.5181680  10.4112800  92.4420080  55.8767270
  10.8042370  92.7592280  55.0635960  10.7729650  91.5631960  55.9911790
   8.7204970  91.1927390  67.1364130   8.0303290  90.9999590  67.7710220
   9.4637270  91.4762030  67.6688430  10.9967940  95.0325830  59.9718050
  10.2649060  95.5412640  60.3208150  10.5992280  94.2155810  59.6706830
   7.4345330  91.7080030  58.3770540   7.4381390  91.2669980  57.5275080
   8.3296450  92.0297360  58.4842360   3.2847710  91.5906520  57.3364750
   2.9447760  92.0681750  58.0931800   2.5225030  91.1371640  56.9765850
   7.4965480  92.7092110  51.3677300   7.6178300  92.6678590  52.3163120
   7.1113990  93.5716260  51.2124030  11.4593850  90.4859510  59.3840990
  11.4766590  90.9368160  60.2282840  11.2109430  89.5865150  59.5974430
   6.5086980  95.0193250  50.7660600   5.9403880  94.5711500  50.1396510
   7.2175980  95.3786030  50.2325750  14.8864600  87.8991690  65.2227370
  15.2110370  87.1681350  65.7485350  14.9221110  87.5805330  64.3208360
   7.7353300  95.7681810  60.1235950   8.1023430  95.2940380  60.8697290
   7.5458360  96.6423380  60.4644290   5.5252670  94.8090450  62.4420160
   5.2209740  95.6882430  62.6670520   6.4799130  94.8690240  62.4777600
  10.2732380  89.4054760  52.9742790   9.4596990  88.9067930  52.8988100
  10.0794330  90.2453010  52.5579140  12.9880770  93.7774410  51.2704950
  13.8760390  94.0891640  51.0956290  12.9585860  92.9046660  50.8785530
   4.7829520  96.1077430  66.4731070   4.4829660  96.2534610  65.5758890
   5.5540760  95.5482720  66.3804460  15.2595040  95.0886250  50.7384810
  15.1758760  95.5200470  49.8881250  15.9789230  95.5484600  51.1711630
   3.1571040  87.3795310  54.8056920   3.0285670  87.3713210  55.7541840
   2.3333060  87.7178400  54.4547930  11.6503750  91.6308740  62.0165070
  12.0184570  90.8103950  62.3444640  10.7901950  91.6910630  62.4320720
  15.0165780  90.5865680  52.8252630  14.3878940  90.6911350  52.1110860
  14.5217700  90.8062460  53.6146510   6.9849810  92.8651630  54.2410510
   6.2765960  93.3337970  54.6824120   7.2694290  92.2073640  54.8755700
   8.6105740  94.2848330  62.2403040   9.1090990  94.7594150  62.9054890
   8.7528690  93.3611850  62.4473070  11.0165240  89.5902290  55.6806300
  10.8933020  89.6088420  54.7315810  11.9649800  89.6381230  55.8004700
   5.1884830  91.1736710  51.6161220   6.0375360  91.6106860  51.5501410
   4.8216100  91.4856970  52.4433280  15.8172600  90.5016290  63.0831430
  15.3146200  91.2421690  63.4225240  16.6329260  90.8900290  62.7668220
  14.1094610  95.7449470  56.5292790  13.1684750  95.7599700  56.7040480
  14.4238680  94.9585430  56.9753090   2.7823010  94.8594140  50.7729640
   2.8626600  93.9121650  50.8847040   3.6742760  95.1901020  50.8790300
   2.3416890  94.8238650  66.9035880   2.3822230  94.5252520  67.8121110
   3.1962390  95.2246260  66.7443400   4.2822700  93.4030750  64.8710370
   3.7519160  92.9121700  64.2433710   4.9510770  93.8314950  64.3368300
   8.6322920  96.4471810  49.3116490   9.1528580  95.7320830  48.9457640
   9.2791320  97.0857680  49.6117000  13.6522930  95.2096370  66.6390710
  14.2343700  94.4548690  66.5511190  13.8284700  95.7403810  65.8622190
   4.7695000  90.3693120  64.9507660   4.6751870  89.7513870  64.2258530
   4.1892390  91.0959410  64.7237570   7.5356440  88.9266360  61.9835050
   7.0873740  88.9490620  61.1380600   6.9021640  88.5285380  62.5805350
  10.2779890  95.5536870  63.9885330  10.3976100  94.9578010  64.7280170
  11.1373890  95.5906560  63.5686630  12.6167790  96.1074060  62.5647840
  12.0903010  96.6316680  61.9612980  12.9599130  96.7401450  63.1957570
   5.0154180  93.4967430  49.0097550   4.8143240  92.6334790  49.3710890
   4.8446230  93.4100790  48.0719150   7.0448660  92.0958220  65.2461150
   7.6348350  91.7874070  65.9338970   6.2268900  91.6237970  65.4021050
  11.8642090  91.7124030  65.4794170  11.1757610  91.0505570  65.4144160
  12.5848110  91.2662300  65.9242630  12.4942490  88.3075660  51.5384430
  12.7744780  87.4643560  51.8943850  11.7208220  88.5398770  52.0523180
   3.8136980  90.5968050  48.9975430   4.1162880  90.6035480  48.0894580
   4.5531570  90.2465910  49.4943090   7.0321910  89.5402670  49.9831630
   6.6843910  88.8626660  49.4034080   7.2334680  89.0792180  50.7975020
  13.3217990  90.8631610  50.6014490  13.7402870  90.6762590  49.7611150
  13.0154050  90.0110660  50.9117420  16.8207720  95.7755750  54.2990290
  16.4451320  95.0083680  53.8671580  16.0910840  96.1578450  54.7865220
  16.2107340  94.9227270  63.9329810  15.9793430  94.6940020  63.0327760
  16.4711890  95.8426820  63.8874700  14.6495410  90.1483700  66.7109510
  15.5265590  90.1567100  67.0943510  14.6616250  89.4114540  66.1001860
  16.0958680  94.0013240  57.5997530  16.6196160  93.5075890  56.9687700
  16.6818100  94.1363600  58.3445100  16.2748400  94.0853110  61.1217080
  15.3251110  94.0516650  61.2362070  16.4561410  94.9953220  60.8866850
   1.7767000  88.3894120  49.2718360   2.4995130  88.9303060  49.5899580
   2.0491520  88.1157540  48.3959900  15.5858650  93.2586590  53.5389940
  16.0817770  93.0257460  54.3238820  15.3874720  92.4198430  53.1227580
  17.0145810  91.8947540  56.0727620  16.9045090  91.7403580  57.0109890
  17.7753400  91.3668480  55.8303030  15.3611530  87.8341670  62.5310620
  15.9983750  88.4475810  62.8969810  15.5086420  87.8702330  61.5859850
  17.9036080  89.7255460  49.3133760  18.8285390  89.5936640  49.1052050
  17.8811870  89.8048280  50.2670210  17.9774570  90.4966120  51.9390470
  17.1826070  90.4311240  52.4683380  18.1817850  91.4316760  51.9275820
   8.7316010  88.9867860  65.4385720   8.6704900  89.5789690  66.1881130
   9.6716390  88.8793820  65.2935980  11.3690570  88.6437920  65.0778010
  11.9830980  88.9617210  64.4159090  11.9140130  88.1586510  65.6973870
   1.8911830  87.3232180  65.1917070   2.4394820  87.1420230  64.4283180
   1.9567140  86.5326290  65.7273380  12.1098610  87.2070060  61.4047300
  11.2358450  87.5405170  61.2020230  12.0009360  86.7343240  62.2299170
  13.0170590  89.4140930  62.7889020  12.6883950  88.5992690  62.4090750
  13.9652890  89.3710740  62.6654710   9.8573430  88.1239900  60.3440210
   9.0745220  88.5985400  60.6236970   9.5636360  87.2194730  60.2353390
  14.4094500  88.8263000  58.3889300  14.8502590  88.7708100  57.5410900
  14.1402090  89.7421010  58.4599480  16.2733070  88.4578240  56.3998120
  16.2121470  87.5139460  56.2529140  17.0525100  88.5658330  56.9451580
   7.7427650  90.5426650  55.8556240   6.9302160  90.1683540  55.5152120
   8.2469290  89.7871730  56.1577430  12.2452630  87.2069100  57.0939310
  12.8482000  87.7789310  57.5687830  11.5045620  87.7708540  56.8713210
  15.3887230  87.6090660  52.3679590  15.5837860  88.5074110  52.6347020
  14.6017100  87.3777740  52.8612540   3.5738990  88.9551430  51.4055900
   4.1031750  88.1681230  51.2763850   4.2067310  89.6342620  51.6391430
   5.7676830  88.6926570  54.4601290   5.1379570  87.9913880  54.6271420
   5.2281970  89.4530700  54.2434450   5.8932390  87.9710550  66.8953780
   5.6116660  88.4744150  66.1314600   6.2752090  87.1732300  66.5295910
  12.4947850  87.3864130  67.4734250  12.3813300  87.7058740  68.3685770
  13.3117590  87.7876640  67.1771530  11.4006000  95.4056600  37.8368990
  11.3200050  94.4911210  37.5660700  10.9870420  95.9023670  37.1308700
   9.5324040  97.1835620  39.7178260   8.7566140  96.7036060  40.0076830
  10.1836970  96.5041270  39.5434420  10.0038200  92.6663190  39.9517350
  10.3803020  91.7935070  39.8391020   9.9057710  93.0021890  39.0607790
   4.1343210  91.0388820  35.4134790   4.2409960  91.9392550  35.7203550
   3.2235570  90.9906790  35.1229440  13.7862320  90.1613630  36.8845690
  14.6071940  89.6710200  36.9271170  13.8196400  90.7511290  37.6377530
   5.9750940  94.0075190  39.7459970   6.4829160  94.5056160  40.3864990
   6.5064180  93.2310390  39.5699330  18.0761870  92.1780380  43.4489320
  17.3714040  92.5662090  42.9304430  18.3419790  92.8730670  44.0510250
   4.2587040  88.6473750  44.0123390   4.2605480  89.1646140  43.2069290
   3.4291350  88.1703930  43.9893320  14.0223800  92.1014010  39.6573230
  13.3179370  92.3898900  40.2376340  14.3835960  92.9114120  39.2972790
   3.9402370  90.3583710  42.0193840   4.2819180  91.2025760  41.7247710
   3.0018180  90.5067450  42.1359180  17.0910720  91.5468800  40.0482440
  16.1435630  91.5807780  40.1797870  17.4160710  92.3607750  40.4331800
   7.6230260  87.8465980  38.3438430   7.9305240  87.2912870  37.6273930
   6.6930960  87.9810440  38.1611420  10.0111020  95.9114810  35.0798550
   9.0840300  95.8452190  35.3087020  10.1635840  96.8494940  34.9653790
   9.9980100  92.1831810  32.0765710   9.0583770  92.3445770  32.1618170
  10.3163360  92.9017490  31.5301700  13.4834870  93.6519650  42.9999610
  13.0706050  94.4773360  43.2539600  12.7510820  93.0664690  42.8075970
   5.6167660  96.4379550  37.8618280   5.2124660  95.7256800  37.3664180
   5.7030780  96.0932790  38.7506320   4.3296280  93.2122760  41.6417320
   4.8810870  93.3218100  40.8670570   4.8439790  93.5860360  42.3572550
  15.7990150  87.9664730  30.9047590  15.4862810  88.0591560  31.8046660
  16.5602620  88.5445760  30.8545020   2.3172290  95.3324530  35.3624930
   2.1969890  96.0586620  34.7506200   2.0073180  94.5627440  34.8852840
  17.0091440  92.7036230  46.8821730  16.3935710  93.2115900  46.3537190
  16.6887860  91.8034560  46.8247670   4.7835950  88.6759600  38.7448600
   4.3404100  89.4569140  38.4133120   5.3420940  88.9989490  39.4519540
   9.0705760  91.5428120  44.3483920   8.6085130  91.7511140  45.1603860
   8.6683870  90.7287470  44.0454590  14.0710270  92.7637070  45.4780580
  13.2203860  92.4642820  45.7989650  13.9112060  93.0079080  44.5664400
  11.1659980  94.2638820  47.5779370  11.4913390  93.4302570  47.2381600
  11.9540310  94.7867340  47.7257700   7.8994770  88.2970300  33.6254430
   7.2748950  88.2930170  34.3507740   7.8124890  87.4301260  33.2290400
   6.8211850  89.2206930  40.6038200   7.1184180  90.1269760  40.5230220
   7.3697410  88.7325710  39.9897770   4.5750170  93.7993170  36.4729850
   4.3491090  93.5830340  37.3776470   3.7942700  94.2321630  36.1275820
  11.8047930  93.8056540  35.0720500  11.2056820  94.5292340  34.8884120
  12.3527540  93.7433320  34.2896950   7.0149380  94.6978750  47.1390120
   6.9192980  93.7573480  46.9890520   7.8581360  94.9193820  46.7438190
  10.4112800  92.4420080  37.1023780  10.8042370  92.7592280  36.2892470
  10.7729650  91.5631960  37.2168300   8.7204970  91.1927390  48.3620640
   8.0303290  90.9999590  48.9966730   9.4637270  91.4762030  48.8944940
  10.9967940  95.0325830  41.1974560  10.2649060  95.5412640  41.5464660
  10.5992280  94.2155810  40.8963340   7.4345330  91.7080030  39.6027050
   7.4381390  91.2669980  38.7531590   8.3296450  92.0297360  39.7098870
   3.2847710  91.5906520  38.5621260   2.9447760  92.0681750  39.3188310
   2.5225030  91.1371640  38.2022360   7.4965480  92.7092110  32.5933810
   7.6178300  92.6678590  33.5419630   7.1113990  93.5716260  32.4380540
  11.4593850  90.4859510  40.6097500  11.4766590  90.9368160  41.4539350
  11.2109430  89.5865150  40.8230940   6.5086980  95.0193250  31.9917110
   5.9403880  94.5711500  31.3653020   7.2175980  95.3786030  31.4582260
  14.8864600  87.8991690  46.4483880  15.2110370  87.1681350  46.9741860
  14.9221110  87.5805330  45.5464870   7.7353300  95.7681810  41.3492460
   8.1023430  95.2940380  42.0953800   7.5458360  96.6423380  41.6900800
   5.5252670  94.8090450  43.6676670   5.2209740  95.6882430  43.8927030
   6.4799130  94.8690240  43.7034110  10.2732380  89.4054760  34.1999300
   9.4596990  88.9067930  34.1244610  10.0794330  90.2453010  33.7835650
  12.9880770  93.7774410  32.4961460  13.8760390  94.0891640  32.3212800
  12.9585860  92.9046660  32.1042040   4.7829520  96.1077430  47.6987580
   4.4829660  96.2534610  46.8015400   5.5540760  95.5482720  47.6060970
  15.2595040  95.0886250  31.9641320  15.1758760  95.5200470  31.1137760
  15.9789230  95.5484600  32.3968140   3.1571040  87.3795310  36.0313430
   3.0285670  87.3713210  36.9798350   2.3333060  87.7178400  35.6804440
  11.6503750  91.6308740  43.2421580  12.0184570  90.8103950  43.5701150
  10.7901950  91.6910630  43.6577230  15.0165780  90.5865680  34.0509140
  14.3878940  90.6911350  33.3367370  14.5217700  90.8062460  34.8403020
   6.9849810  92.8651630  35.4667020   6.2765960  93.3337970  35.9080630
   7.2694290  92.2073640  36.1012210   8.6105740  94.2848330  43.4659550
   9.1090990  94.7594150  44.1311400   8.7528690  93.3611850  43.6729580
  11.0165240  89.5902290  36.9062810  10.8933020  89.6088420  35.9572320
  11.9649800  89.6381230  37.0261210   5.1884830  91.1736710  32.8417730
   6.0375360  91.6106860  32.7757920   4.8216100  91.4856970  33.6689790
  15.8172600  90.5016290  44.3087940  15.3146200  91.2421690  44.6481750
  16.6329260  90.8900290  43.9924730  14.1094610  95.7449470  37.7549300
  13.1684750  95.7599700  37.9296990  14.4238680  94.9585430  38.2009600
   2.7823010  94.8594140  31.9986150   2.8626600  93.9121650  32.1103550
   3.6742760  95.1901020  32.1046810   2.3416890  94.8238650  48.1292390
   2.3822230  94.5252520  49.0377620   3.1962390  95.2246260  47.9699910
   4.2822700  93.4030750  46.0966880   3.7519160  92.9121700  45.4690220
   4.9510770  93.8314950  45.5624810   8.6322920  96.4471810  30.5373000
   9.1528580  95.7320830  30.1714150   9.2791320  97.0857680  30.8373510
  13.6522930  95.2096370  47.8647220  14.2343700  94.4548690  47.7767700
  13.8284700  95.7403810  47.0878700   4.7695000  90.3693120  46.1764170
   4.6751870  89.7513870  45.4515040   4.1892390  91.0959410  45.9494080
   7.5356440  88.9266360  43.2091560   7.0873740  88.9490620  42.3637110
   6.9021640  88.5285380  43.8061860  10.2779890  95.5536870  45.2141840
  10.3976100  94.9578010  45.9536680  11.1373890  95.5906560  44.7943140
  12.6167790  96.1074060  43.7904350  12.0903010  96.6316680  43.1869490
  12.9599130  96.7401450  44.4214080   5.0154180  93.4967430  30.2354060
   4.8143240  92.6334790  30.5967400   4.8446230  93.4100790  29.2975660
   7.0448660  92.0958220  46.4717660   7.6348350  91.7874070  47.1595480
   6.2268900  91.6237970  46.6277560  11.8642090  91.7124030  46.7050680
  11.1757610  91.0505570  46.6400670  12.5848110  91.2662300  47.1499140
  12.4942490  88.3075660  32.7640940  12.7744780  87.4643560  33.1200360
  11.7208220  88.5398770  33.2779690   3.8136980  90.5968050  30.2231940
   4.1162880  90.6035480  29.3151090   4.5531570  90.2465910  30.7199600
   7.0321910  89.5402670  31.2088140   6.6843910  88.8626660  30.6290590
   7.2334680  89.0792180  32.0231530  13.3217990  90.8631610  31.8271000
  13.7402870  90.6762590  30.9867660  13.0154050  90.0110660  32.1373930
  16.8207720  95.7755750  35.5246800  16.4451320  95.0083680  35.0928090
  16.0910840  96.1578450  36.0121730  16.2107340  94.9227270  45.1586320
  15.9793430  94.6940020  44.2584270  16.4711890  95.8426820  45.1131210
  14.6495410  90.1483700  47.9366020  15.5265590  90.1567100  48.3200020
  14.6616250  89.4114540  47.3258370  16.0958680  94.0013240  38.8254040
  16.6196160  93.5075890  38.1944210  16.6818100  94.1363600  39.5701610
  16.2748400  94.0853110  42.3473590  15.3251110  94.0516650  42.4618580
  16.4561410  94.9953220  42.1123360   1.7767000  88.3894120  30.4974870
   2.4995130  88.9303060  30.8156090   2.0491520  88.1157540  29.6216410
  15.5858650  93.2586590  34.7646450  16.0817770  93.0257460  35.5495330
  15.3874720  92.4198430  34.3484090  17.0145810  91.8947540  37.2984130
  16.9045090  91.7403580  38.2366400  17.7753400  91.3668480  37.0559540
  15.3611530  87.8341670  43.7567130  15.9983750  88.4475810  44.1226320
  15.5086420  87.8702330  42.8116360  17.9036080  89.7255460  30.5390270
  18.8285390  89.5936640  30.3308560  17.8811870  89.8048280  31.4926720
  17.9774570  90.4966120  33.1646980  17.1826070  90.4311240  33.6939890
  18.1817850  91.4316760  33.1532330   8.7316010  88.9867860  46.6642230
   8.6704900  89.5789690  47.4137640   9.6716390  88.8793820  46.5192490
  11.3690570  88.6437920  46.3034520  11.9830980  88.9617210  45.6415600
  11.9140130  88.1586510  46.9230380   1.8911830  87.3232180  46.4173580
   2.4394820  87.1420230  45.6539690   1.9567140  86.5326290  46.9529890
  12.1098610  87.2070060  42.6303810  11.2358450  87.5405170  42.4276740
  12.0009360  86.7343240  43.4555680  13.0170590  89.4140930  44.0145530
  12.6883950  88.5992690  43.6347260  13.9652890  89.3710740  43.8911220
   9.8573430  88.1239900  41.5696720   9.0745220  88.5985400  41.8493480
   9.5636360  87.2194730  41.4609900  14.4094500  88.8263000  39.6145810
  14.8502590  88.7708100  38.7667410  14.1402090  89.7421010  39.6855990
  16.2733070  88.4578240  37.6254630  16.2121470  87.5139460  37.4785650
  17.0525100  88.5658330  38.1708090   7.7427650  90.5426650  37.0812750
   6.9302160  90.1683540  36.7408630   8.2469290  89.7871730  37.3833940
  12.2452630  87.2069100  38.3195820  12.8482000  87.7789310  38.7944340
  11.5045620  87.7708540  38.0969720  15.3887230  87.6090660  33.5936100
  15.5837860  88.5074110  33.8603530  14.6017100  87.3777740  34.0869050
   3.5738990  88.9551430  32.6312410   4.1031750  88.1681230  32.5020360
   4.2067310  89.6342620  32.8647940   5.7676830  88.6926570  35.6857800
   5.1379570  87.9913880  35.8527930   5.2281970  89.4530700  35.4690960
   5.8932390  87.9710550  48.1210290   5.6116660  88.4744150  47.3571110
   6.2752090  87.1732300  47.7552420  12.4947850  87.3864130  48.6990760
  12.3813300  87.7058740  49.5942280  13.3117590  87.7876640  48.4028040
  11.4006000  95.4056600  19.0625500  11.3200050  94.4911210  18.7917210
  10.9870420  95.9023670  18.3565210   9.5324040  97.1835620  20.9434770
   8.7566140  96.7036060  21.2333340  10.1836970  96.5041270  20.7690930
  10.0038200  92.6663190  21.1773860  10.3803020  91.7935070  21.0647530
   9.9057710  93.0021890  20.2864300   4.1343210  91.0388820  16.6391300
   4.2409960  91.9392550  16.9460060   3.2235570  90.9906790  16.3485950
  13.7862320  90.1613630  18.1102200  14.6071940  89.6710200  18.1527680
  13.8196400  90.7511290  18.8634040   5.9750940  94.0075190  20.9716480
   6.4829160  94.5056160  21.6121500   6.5064180  93.2310390  20.7955840
  18.0761870  92.1780380  24.6745830  17.3714040  92.5662090  24.1560940
  18.3419790  92.8730670  25.2766760   4.2587040  88.6473750  25.2379900
   4.2605480  89.1646140  24.4325800   3.4291350  88.1703930  25.2149830
  14.0223800  92.1014010  20.8829740  13.3179370  92.3898900  21.4632850
  14.3835960  92.9114120  20.5229300   3.9402370  90.3583710  23.2450350
   4.2819180  91.2025760  22.9504220   3.0018180  90.5067450  23.3615690
  17.0910720  91.5468800  21.2738950  16.1435630  91.5807780  21.4054380
  17.4160710  92.3607750  21.6588310   7.6230260  87.8465980  19.5694940
   7.9305240  87.2912870  18.8530440   6.6930960  87.9810440  19.3867930
  10.0111020  95.9114810  16.3055060   9.0840300  95.8452190  16.5343530
  10.1635840  96.8494940  16.1910300   9.9980100  92.1831810  13.3022220
   9.0583770  92.3445770  13.3874680  10.3163360  92.9017490  12.7558210
  13.4834870  93.6519650  24.2256120  13.0706050  94.4773360  24.4796110
  12.7510820  93.0664690  24.0332480   5.6167660  96.4379550  19.0874790
   5.2124660  95.7256800  18.5920690   5.7030780  96.0932790  19.9762830
   4.3296280  93.2122760  22.8673830   4.8810870  93.3218100  22.0927080
   4.8439790  93.5860360  23.5829060  15.7990150  87.9664730  12.1304100
  15.4862810  88.0591560  13.0303170  16.5602620  88.5445760  12.0801530
   2.3172290  95.3324530  16.5881440   2.1969890  96.0586620  15.9762710
   2.0073180  94.5627440  16.1109350  17.0091440  92.7036230  28.1078240
  16.3935710  93.2115900  27.5793700  16.6887860  91.8034560  28.0504180
   4.7835950  88.6759600  19.9705110   4.3404100  89.4569140  19.6389630
   5.3420940  88.9989490  20.6776050   9.0705760  91.5428120  25.5740430
   8.6085130  91.7511140  26.3860370   8.6683870  90.7287470  25.2711100
  14.0710270  92.7637070  26.7037090  13.2203860  92.4642820  27.0246160
  13.9112060  93.0079080  25.7920910  11.1659980  94.2638820  28.8035880
  11.4913390  93.4302570  28.4638110  11.9540310  94.7867340  28.9514210
   7.8994770  88.2970300  14.8510940   7.2748950  88.2930170  15.5764250
   7.8124890  87.4301260  14.4546910   6.8211850  89.2206930  21.8294710
   7.1184180  90.1269760  21.7486730   7.3697410  88.7325710  21.2154280
   4.5750170  93.7993170  17.6986360   4.3491090  93.5830340  18.6032980
   3.7942700  94.2321630  17.3532330  11.8047930  93.8056540  16.2977010
  11.2056820  94.5292340  16.1140630  12.3527540  93.7433320  15.5153460
   7.0149380  94.6978750  28.3646630   6.9192980  93.7573480  28.2147030
   7.8581360  94.9193820  27.9694700  10.4112800  92.4420080  18.3280290
  10.8042370  92.7592280  17.5148980  10.7729650  91.5631960  18.4424810
   8.7204970  91.1927390  29.5877150   8.0303290  90.9999590  30.2223240
   9.4637270  91.4762030  30.1201450  10.9967940  95.0325830  22.4231070
  10.2649060  95.5412640  22.7721170  10.5992280  94.2155810  22.1219850
   7.4345330  91.7080030  20.8283560   7.4381390  91.2669980  19.9788100
   8.3296450  92.0297360  20.9355380   3.2847710  91.5906520  19.7877770
   2.9447760  92.0681750  20.5444820   2.5225030  91.1371640  19.4278870
   7.4965480  92.7092110  13.8190320   7.6178300  92.6678590  14.7676140
   7.1113990  93.5716260  13.6637050  11.4593850  90.4859510  21.8354010
  11.4766590  90.9368160  22.6795860  11.2109430  89.5865150  22.0487450
   6.5086980  95.0193250  13.2173620   5.9403880  94.5711500  12.5909530
   7.2175980  95.3786030  12.6838770  14.8864600  87.8991690  27.6740390
  15.2110370  87.1681350  28.1998370  14.9221110  87.5805330  26.7721380
   7.7353300  95.7681810  22.5748970   8.1023430  95.2940380  23.3210310
   7.5458360  96.6423380  22.9157310   5.5252670  94.8090450  24.8933180
   5.2209740  95.6882430  25.1183540   6.4799130  94.8690240  24.9290620
  10.2732380  89.4054760  15.4255810   9.4596990  88.9067930  15.3501120
  10.0794330  90.2453010  15.0092160  12.9880770  93.7774410  13.7217970
  13.8760390  94.0891640  13.5469310  12.9585860  92.9046660  13.3298550
   4.7829520  96.1077430  28.9244090   4.4829660  96.2534610  28.0271910
   5.5540760  95.5482720  28.8317480  15.2595040  95.0886250  13.1897830
  15.1758760  95.5200470  12.3394270  15.9789230  95.5484600  13.6224650
   3.1571040  87.3795310  17.2569940   3.0285670  87.3713210  18.2054860
   2.3333060  87.7178400  16.9060950  11.6503750  91.6308740  24.4678090
  12.0184570  90.8103950  24.7957660  10.7901950  91.6910630  24.8833740
  15.0165780  90.5865680  15.2765650  14.3878940  90.6911350  14.5623880
  14.5217700  90.8062460  16.0659530   6.9849810  92.8651630  16.6923530
   6.2765960  93.3337970  17.1337140   7.2694290  92.2073640  17.3268720
   8.6105740  94.2848330  24.6916060   9.1090990  94.7594150  25.3567910
   8.7528690  93.3611850  24.8986090  11.0165240  89.5902290  18.1319320
  10.8933020  89.6088420  17.1828830  11.9649800  89.6381230  18.2517720
   5.1884830  91.1736710  14.0674240   6.0375360  91.6106860  14.0014430
   4.8216100  91.4856970  14.8946300  15.8172600  90.5016290  25.5344450
  15.3146200  91.2421690  25.8738260  16.6329260  90.8900290  25.2181240
  14.1094610  95.7449470  18.9805810  13.1684750  95.7599700  19.1553500
  14.4238680  94.9585430  19.4266110   2.7823010  94.8594140  13.2242660
   2.8626600  93.9121650  13.3360060   3.6742760  95.1901020  13.3303320
   2.3416890  94.8238650  29.3548900   2.3822230  94.5252520  30.2634130
   3.1962390  95.2246260  29.1956420   4.2822700  93.4030750  27.3223390
   3.7519160  92.9121700  26.6946730   4.9510770  93.8314950  26.7881320
   8.6322920  96.4471810  11.7629510   9.1528580  95.7320830  11.3970660
   9.2791320  97.0857680  12.0630020  13.6522930  95.2096370  29.0903730
  14.2343700  94.4548690  29.0024210  13.8284700  95.7403810  28.3135210
   4.7695000  90.3693120  27.4020680   4.6751870  89.7513870  26.6771550
   4.1892390  91.0959410  27.1750590   7.5356440  88.9266360  24.4348070
   7.0873740  88.9490620  23.5893620   6.9021640  88.5285380  25.0318370
  10.2779890  95.5536870  26.4398350  10.3976100  94.9578010  27.1793190
  11.1373890  95.5906560  26.0199650  12.6167790  96.1074060  25.0160860
  12.0903010  96.6316680  24.4126000  12.9599130  96.7401450  25.6470590
   5.0154180  93.4967430  11.4610570   4.8143240  92.6334790  11.8223910
   4.8446230  93.4100790  10.5232170   7.0448660  92.0958220  27.6974170
   7.6348350  91.7874070  28.3851990   6.2268900  91.6237970  27.8534070
  11.8642090  91.7124030  27.9307190  11.1757610  91.0505570  27.8657180
  12.5848110  91.2662300  28.3755650  12.4942490  88.3075660  13.9897450
  12.7744780  87.4643560  14.3456870  11.7208220  88.5398770  14.5036200
   3.8136980  90.5968050  11.4488450   4.1162880  90.6035480  10.5407600
   4.5531570  90.2465910  11.9456110   7.0321910  89.5402670  12.4344650
   6.6843910  88.8626660  11.8547100   7.2334680  89.0792180  13.2488040
  13.3217990  90.8631610  13.0527510  13.7402870  90.6762590  12.2124170
  13.0154050  90.0110660  13.3630440  16.8207720  95.7755750  16.7503310
  16.4451320  95.0083680  16.3184600  16.0910840  96.1578450  17.2378240
  16.2107340  94.9227270  26.3842830  15.9793430  94.6940020  25.4840780
  16.4711890  95.8426820  26.3387720  14.6495410  90.1483700  29.1622530
  15.5265590  90.1567100  29.5456530  14.6616250  89.4114540  28.5514880
  16.0958680  94.0013240  20.0510550  16.6196160  93.5075890  19.4200720
  16.6818100  94.1363600  20.7958120  16.2748400  94.0853110  23.5730100
  15.3251110  94.0516650  23.6875090  16.4561410  94.9953220  23.3379870
   1.7767000  88.3894120  11.7231380   2.4995130  88.9303060  12.0412600
   2.0491520  88.1157540  10.8472920  15.5858650  93.2586590  15.9902960
  16.0817770  93.0257460  16.7751840  15.3874720  92.4198430  15.5740600
  17.0145810  91.8947540  18.5240640  16.9045090  91.7403580  19.4622910
  17.7753400  91.3668480  18.2816050  15.3611530  87.8341670  24.9823640
  15.9983750  88.4475810  25.3482830  15.5086420  87.8702330  24.0372870
  17.9036080  89.7255460  11.7646780  18.8285390  89.5936640  11.5565070
  17.8811870  89.8048280  12.7183230  17.9774570  90.4966120  14.3903490
  17.1826070  90.4311240  14.9196400  18.1817850  91.4316760  14.3788840
   8.7316010  88.9867860  27.8898740   8.6704900  89.5789690  28.6394150
   9.6716390  88.8793820  27.7449000  11.3690570  88.6437920  27.5291030
  11.9830980  88.9617210  26.8672110  11.9140130  88.1586510  28.1486890
   1.8911830  87.3232180  27.6430090   2.4394820  87.1420230  26.8796200
   1.9567140  86.5326290  28.1786400  12.1098610  87.2070060  23.8560320
  11.2358450  87.5405170  23.6533250  12.0009360  86.7343240  24.6812190
  13.0170590  89.4140930  25.2402040  12.6883950  88.5992690  24.8603770
  13.9652890  89.3710740  25.1167730   9.8573430  88.1239900  22.7953230
   9.0745220  88.5985400  23.0749990   9.5636360  87.2194730  22.6866410
  14.4094500  88.8263000  20.8402320  14.8502590  88.7708100  19.9923920
  14.1402090  89.7421010  20.9112500  16.2733070  88.4578240  18.8511140
  16.2121470  87.5139460  18.7042160  17.0525100  88.5658330  19.3964600
   7.7427650  90.5426650  18.3069260   6.9302160  90.1683540  17.9665140
   8.2469290  89.7871730  18.6090450  12.2452630  87.2069100  19.5452330
  12.8482000  87.7789310  20.0200850  11.5045620  87.7708540  19.3226230
  15.3887230  87.6090660  14.8192610  15.5837860  88.5074110  15.0860040
  14.6017100  87.3777740  15.3125560   3.5738990  88.9551430  13.8568920
   4.1031750  88.1681230  13.7276870   4.2067310  89.6342620  14.0904450
   5.7676830  88.6926570  16.9114310   5.1379570  87.9913880  17.0784440
   5.2281970  89.4530700  16.6947470   5.8932390  87.9710550  29.3466800
   5.6116660  88.4744150  28.5827620   6.2752090  87.1732300  28.9808930
  12.4947850  87.3864130  29.9247270  12.3813300  87.7058740  30.8198790
  13.3117590  87.7876640  29.6284550   9.5324040  97.1835620   2.1691280
   8.7566140  96.7036060   2.4589850  10.1836970  96.5041270   1.9947440
   5.9750940  94.0075190   2.1972990   6.4829160  94.5056160   2.8378010
   6.5064180  93.2310390   2.0212350  18.0761870  92.1780380   5.9002340
  17.3714040  92.5662090   5.3817450  18.3419790  92.8730670   6.5023270
   4.2587040  88.6473750   6.4636410   4.2605480  89.1646140   5.6582310
   3.4291350  88.1703930   6.4406340  14.0223800  92.1014010   2.1086250
  13.3179370  92.3898900   2.6889360  14.3835960  92.9114120   1.7485810
   3.9402370  90.3583710   4.4706860   4.2819180  91.2025760   4.1760730
   3.0018180  90.5067450   4.5872200  17.0910720  91.5468800   2.4995460
  16.1435630  91.5807780   2.6310890  17.4160710  92.3607750   2.8844820
  13.4834870  93.6519650   5.4512630  13.0706050  94.4773360   5.7052620
  12.7510820  93.0664690   5.2588990   4.3296280  93.2122760   4.0930340
   4.8810870  93.3218100   3.3183590   4.8439790  93.5860360   4.8085570
  17.0091440  92.7036230   9.3334750  16.3935710  93.2115900   8.8050210
  16.6887860  91.8034560   9.2760690   9.0705760  91.5428120   6.7996940
   8.6085130  91.7511140   7.6116880   8.6683870  90.7287470   6.4967610
  14.0710270  92.7637070   7.9293600  13.2203860  92.4642820   8.2502670
  13.9112060  93.0079080   7.0177420  11.1659980  94.2638820  10.0292390
  11.4913390  93.4302570   9.6894620  11.9540310  94.7867340  10.1770720
   6.8211850  89.2206930   3.0551220   7.1184180  90.1269760   2.9743240
   7.3697410  88.7325710   2.4410790   7.0149380  94.6978750   9.5903140
   6.9192980  93.7573480   9.4403540   7.8581360  94.9193820   9.1951210
   8.7204970  91.1927390  10.8133660   8.0303290  90.9999590  11.4479750
   9.4637270  91.4762030  11.3457960  10.9967940  95.0325830   3.6487580
  10.2649060  95.5412640   3.9977680  10.5992280  94.2155810   3.3476360
  11.4593850  90.4859510   3.0610520  11.4766590  90.9368160   3.9052370
  11.2109430  89.5865150   3.2743960  14.8864600  87.8991690   8.8996900
  15.2110370  87.1681350   9.4254880  14.9221110  87.5805330   7.9977890
   7.7353300  95.7681810   3.8005480   8.1023430  95.2940380   4.5466820
   7.5458360  96.6423380   4.1413820   5.5252670  94.8090450   6.1189690
   5.2209740  95.6882430   6.3440050   6.4799130  94.8690240   6.1547130
   4.7829520  96.1077430  10.1500600   4.4829660  96.2534610   9.2528420
   5.5540760  95.5482720  10.0573990  11.6503750  91.6308740   5.6934600
  12.0184570  90.8103950   6.0214170  10.7901950  91.6910630   6.1090250
   8.6105740  94.2848330   5.9172570   9.1090990  94.7594150   6.5824420
   8.7528690  93.3611850   6.1242600  15.8172600  90.5016290   6.7600960
  15.3146200  91.2421690   7.0994770  16.6329260  90.8900290   6.4437750
   2.3416890  94.8238650  10.5805410   2.3822230  94.5252520  11.4890640
   3.1962390  95.2246260  10.4212930   4.2822700  93.4030750   8.5479900
   3.7519160  92.9121700   7.9203240   4.9510770  93.8314950   8.0137830
  13.6522930  95.2096370  10.3160240  14.2343700  94.4548690  10.2280720
  13.8284700  95.7403810   9.5391720   4.7695000  90.3693120   8.6277190
   4.6751870  89.7513870   7.9028060   4.1892390  91.0959410   8.4007100
   7.5356440  88.9266360   5.6604580   7.0873740  88.9490620   4.8150130
   6.9021640  88.5285380   6.2574880  10.2779890  95.5536870   7.6654860
  10.3976100  94.9578010   8.4049700  11.1373890  95.5906560   7.2456160
  12.6167790  96.1074060   6.2417370  12.0903010  96.6316680   5.6382510
  12.9599130  96.7401450   6.8727100   7.0448660  92.0958220   8.9230680
   7.6348350  91.7874070   9.6108500   6.2268900  91.6237970   9.0790580
  11.8642090  91.7124030   9.1563700  11.1757610  91.0505570   9.0913690
  12.5848110  91.2662300   9.6012160  16.2107340  94.9227270   7.6099340
  15.9793430  94.6940020   6.7097290  16.4711890  95.8426820   7.5644230
  14.6495410  90.1483700  10.3879040  15.5265590  90.1567100  10.7713040
  14.6616250  89.4114540   9.7771390  16.2748400  94.0853110   4.7986610
  15.3251110  94.0516650   4.9131600  16.4561410  94.9953220   4.5636380
  15.3611530  87.8341670   6.2080150  15.9983750  88.4475810   6.5739340
  15.5086420  87.8702330   5.2629380   8.7316010  88.9867860   9.1155250
   8.6704900  89.5789690   9.8650660   9.6716390  88.8793820   8.9705510
  11.3690570  88.6437920   8.7547540  11.9830980  88.9617210   8.0928620
  11.9140130  88.1586510   9.3743400   1.8911830  87.3232180   8.8686600
   2.4394820  87.1420230   8.1052710   1.9567140  86.5326290   9.4042910
  12.1098610  87.2070060   5.0816830  11.2358450  87.5405170   4.8789760
  12.0009360  86.7343240   5.9068700  13.0170590  89.4140930   6.4658550
  12.6883950  88.5992690   6.0860280  13.9652890  89.3710740   6.3424240
   9.8573430  88.1239900   4.0209740   9.0745220  88.5985400   4.3006500
   9.5636360  87.2194730   3.9122920   5.8932390  87.9710550  10.5723310
   5.6116660  88.4744150   9.8084130   6.2752090  87.1732300  10.2065440
  12.4947850  87.3864130  11.1503780  12.3813300  87.7058740  12.0455300
  13.3117590  87.7876640  10.8541060  11.4006000  76.6313110  94.1599460
  11.3200050  75.7167720  93.8891170  10.9870420  77.1280180  93.4539170
  13.5531470  82.8152320  94.8207860  13.0913000  82.0439560  95.1495030
  14.3657020  82.8418390  95.3260310   9.7794780  85.1010330  94.4411850
   9.1606220  85.5567830  93.8706290  10.6346560  85.2561790  94.0401550
   4.1343210  72.2645330  91.7365260   4.2409960  73.1649060  92.0434020
   3.2235570  72.2163300  91.4459910  13.7862320  71.3870140  93.2076160
  14.6071940  70.8966710  93.2501640  13.8196400  71.9767800  93.9608000
  10.6458130  79.9849570  91.8343760  10.0275400  80.4499020  91.2706480
  11.1581380  80.6777050  92.2513270   7.6230260  69.0722490  94.6668900
   7.9305240  68.5169380  93.9504400   6.6930960  69.2066950  94.4841890
  14.4690740  81.5106000  92.0466530  14.3587070  80.5680330  92.1715950
  14.4658990  81.8721640  92.9329290  10.0111020  77.1371320  91.4029020
   9.0840300  77.0708700  91.6317490  10.1635840  78.0751450  91.2884260
   9.9980100  73.4088320  88.3996180   9.0583770  73.5702280  88.4848640
  10.3163360  74.1274000  87.8532170  14.0408310  78.6991620  91.9064270
  13.4220730  78.3611170  91.2590570  14.0232760  78.0551380  92.6143460
   5.6167660  77.6636060  94.1848750   5.2124660  76.9513310  93.6894650
   5.7030780  77.3189300  95.0736790  12.2173010  77.9378430  88.9137020
  12.6566290  77.1000860  88.7674840  12.9301430  78.5707830  89.0001160
  10.3268390  82.8774500  92.8818260  10.7664300  83.6198830  92.4673650
  10.2655280  83.1201070  93.8057220  15.7990150  69.1921240  87.2278060
  15.4862810  69.2848070  88.1277130  16.5602620  69.7702270  87.1775490
   2.3172290  76.5581040  91.6855400   2.1969890  77.2843130  91.0736670
   2.0073180  75.7883950  91.2083310  12.9938570  85.8643620  90.2381270
  12.8339710  85.5746560  91.1363100  12.8285280  85.0883750  89.7026500
   5.4726950  85.6442150  92.0152890   5.2969430  84.7277690  91.8020690
   4.6182690  86.0029440  92.2550690  12.6964700  83.3731180  88.7979270
  12.0029860  83.3708470  88.1381550  13.4387560  82.9490500  88.3673440
  12.2614630  84.9993890  92.8727760  12.7171580  84.2183270  93.1866380
  12.6007150  85.7100710  93.4168940   4.7835950  69.9016110  95.0679070
   4.3404100  70.6825650  94.7363590   5.3420940  70.2246000  95.7750010
   7.8994770  69.5226810  89.9484900   7.2748950  69.5186680  90.6738210
   7.8124890  68.6557770  89.5520870   4.5750170  75.0249680  92.7960320
   4.3491090  74.8086850  93.7006940   3.7942700  75.4578140  92.4506290
  11.8047930  75.0313050  91.3950970  11.2056820  75.7548850  91.2114590
  12.3527540  74.9689830  90.6127420  10.4112800  73.6676590  93.4254250
  10.8042370  73.9848790  92.6122940  10.7729650  72.7888470  93.5398770
   7.4345330  72.9336540  95.9257520   7.4381390  72.4926490  95.0762060
   8.3296450  73.2553870  96.0329340   3.2847710  72.8163030  94.8851730
   2.9447760  73.2938260  95.6418780   2.5225030  72.3628150  94.5252830
   7.4965480  73.9348620  88.9164280   7.6178300  73.8935100  89.8650100
   7.1113990  74.7972770  88.7611010   6.5086980  76.2449760  88.3147580
   5.9403880  75.7968010  87.6883490   7.2175980  76.6042540  87.7812730
   4.0534460  80.2407950  90.5873990   3.2796720  79.7005570  90.4272710
   4.7829090  79.7214560  90.2491750  10.2732380  70.6311270  90.5229770
   9.4596990  70.1324440  90.4475080  10.0794330  71.4709520  90.1066120
  12.9880770  75.0030920  88.8191930  13.8760390  75.3148150  88.6443270
  12.9585860  74.1303170  88.4272510   4.0971860  79.9088330  94.2252800
   4.6150530  79.1056590  94.1709690   3.6455880  79.8467470  95.0669630
   8.9841360  81.1754610  89.4980100   9.3257060  81.9196840  89.0023420
   8.1554070  81.4885730  89.8604930  15.2595040  76.3142760  88.2871790
  15.1758760  76.7456980  87.4368230  15.9789230  76.7741110  88.7198610
  16.2882290  83.1685020  91.0153920  15.6458450  82.5140640  91.2897640
  15.9012950  83.5740110  90.2394590  11.8668770  80.4970450  94.8625610
  12.2192590  79.8998580  94.2026980  10.9831100  80.1714680  95.0333860
   7.9532050  81.2568140  92.2696020   8.6403180  81.8037350  92.6503610
   7.1664470  81.8008870  92.3045630   7.2559260  78.2614170  91.8821380
   7.7122040  79.0719420  92.1081570   6.9047470  77.9437310  92.7139870
   3.1571040  68.6051820  92.3543900   3.0285670  68.5969720  93.3028820
   2.3333060  68.9434910  92.0034910  14.6779670  82.0601480  87.5530270
  14.4517250  81.3431920  88.1454910  14.2875870  81.8113920  86.7152020
  14.2595920  79.9773420  89.2144430  13.9717620  80.4386110  90.0022310
  15.0548090  79.5171190  89.4828650   6.4764320  83.4699540  89.1448400
   6.4674420  84.2029230  88.5292910   5.5562680  83.2231120  89.2375360
  15.0165780  71.8122190  90.3739610  14.3878940  71.9167860  89.6597840
  14.5217700  72.0318970  91.1633490   9.4623920  83.5327780  87.8073590
   9.5635900  83.3291770  86.8775570   8.5625660  83.2786060  88.0121370
   6.9849810  74.0908140  91.7897490   6.2765960  74.5594480  92.2311100
   7.2694290  73.4330150  92.4242680  11.0165240  70.8158800  93.2293280
  10.8933020  70.8344930  92.2802790  11.9649800  70.8637740  93.3491680
   8.1042030  86.0514100  92.5021260   8.3583530  86.0135490  91.5800630
   7.1554510  85.9247430  92.4949510   5.1884830  72.3993220  89.1648200
   6.0375360  72.8363370  89.0988390   4.8216100  72.7113480  89.9920260
  14.1094610  76.9705980  94.0779770  13.1684750  76.9856210  94.2527460
  14.4238680  76.1841940  94.5240070   4.0876250  78.6525580  87.6383730
   4.8539520  78.5406940  88.2009160   4.1650940  77.9563550  86.9860500
   2.7823010  76.0850650  88.3216620   2.8626600  75.1378160  88.4334020
   3.6742760  76.4157530  88.4277280   3.5837720  86.2346040  95.4251160
   4.3200200  85.6861500  95.6959730   3.9678640  87.1002050  95.2857150
   6.6940030  85.4076350  87.2476730   7.4868640  85.6965180  86.7958520
   6.1744380  84.9768520  86.5689210  15.7470200  84.6346480  88.6713470
  15.4611710  84.2211620  87.8567650  15.5489750  85.5634190  88.5513990
   7.2117430  80.6279760  87.1119080   7.1068070  80.0132110  87.8380460
   7.0441650  80.1045650  86.3282090  10.4520160  79.6899790  87.7161070
   9.9030260  80.1369090  88.3603810  11.0739420  79.1849040  88.2398740
   6.1195280  78.6490710  89.6126370   6.5411700  78.4830580  90.4557760
   6.2446120  77.8390940  89.1181510   8.6322920  77.6728320  86.8603470
   9.1528580  76.9577340  86.4944620   9.2791320  78.3114190  87.1603980
   5.0154180  74.7223940  86.5584530   4.8143240  73.8591300  86.9197870
   4.8446230  74.6357300  85.6206130  12.4942490  69.5332170  89.0871410
  12.7744780  68.6900070  89.4430830  11.7208220  69.7655280  89.6010160
   3.8136980  71.8224560  86.5462410   4.1162880  71.8291990  85.6381560
   4.5531570  71.4722420  87.0430070   7.0321910  70.7659180  87.5318610
   6.6843910  70.0883170  86.9521060   7.2334680  70.3048690  88.3462000
   9.1970950  85.7539930  89.1505210  10.0921740  86.0924900  89.1723970
   9.2288580  85.0319340  88.5229490   2.8367110  81.1266980  87.3792210
   3.2741980  81.6696650  88.0349790   3.3214840  80.3013930  87.3888550
   4.6474830  82.2465020  92.4914440   4.3470370  82.1229990  93.3918350
   4.5412320  81.3873610  92.0830170  17.4166750  82.0261420  87.1941120
  16.5859710  82.0938070  87.6648350  17.5938580  82.9165540  86.8907980
  16.8723210  78.7708900  89.6975320  17.6342120  79.3405550  89.8035010
  16.8877580  78.2036100  90.4683630  17.8783180  79.6259000  94.5417250
  18.2492010  78.8426320  94.1353220  18.5185110  80.3148100  94.3634550
  16.9242380  79.0643270  86.8547840  17.1991220  79.9722150  86.7267060
  16.7353120  79.0005800  87.7909830  13.3217990  72.0888120  88.1501470
  13.7402870  71.9019100  87.3098130  13.0154050  71.2367170  88.4604400
  16.8207720  77.0012260  91.8477270  16.4451320  76.2340190  91.4158560
  16.0910840  77.3834960  92.3352200  16.0958680  75.2269750  95.1484510
  16.6196160  74.7332400  94.5174680  16.6818100  75.3620110  95.8932080
   1.7767000  69.6150630  86.8205340   2.4995130  70.1559570  87.1386560
   2.0491520  69.3414050  85.9446880  15.5858650  74.4843100  91.0876920
  16.0817770  74.2513970  91.8725800  15.3874720  73.6454940  90.6714560
  17.0145810  73.1204050  93.6214600  16.9045090  72.9660090  94.5596870
  17.7753400  72.5924990  93.3790010  17.9036080  70.9511970  86.8620740
  18.8285390  70.8193150  86.6539030  17.8811870  71.0304790  87.8157190
  17.9774570  71.7222630  89.4877450  17.1826070  71.6567750  90.0170360
  18.1817850  72.6573270  89.4762800  14.9192990  85.7614180  93.4815840
  15.5152060  85.4398750  92.8050260  15.1771140  85.2886000  94.2729110
  14.4094500  70.0519510  95.9376280  14.8502590  69.9964610  95.0897880
  14.1402090  70.9677520  96.0086460  16.2733070  69.6834750  93.9485100
  16.2121470  68.7395970  93.8016120  17.0525100  69.7914840  94.4938560
   7.7427650  71.7683160  93.4043220   6.9302160  71.3940050  93.0639100
   8.2469290  71.0128240  93.7064410  12.2452630  68.4325610  94.6426290
  12.8482000  69.0045820  95.1174810  11.5045620  68.9965050  94.4200190
  15.3887230  68.8347170  89.9166570  15.5837860  69.7330620  90.1834000
  14.6017100  68.6034250  90.4099520   2.1848520  84.5160340  90.3559190
   1.6596140  84.8968370  89.6521150   2.1093100  85.1411110  91.0768900
   3.5738990  70.1807940  88.9542880   4.1031750  69.3937740  88.8250830
   4.2067310  70.8599130  89.1878410   5.7676830  69.9183080  92.0088270
   5.1379570  69.2170390  92.1758400   5.2281970  70.6787210  91.7921430
  16.9413840  86.0747880  91.6773130  17.1166030  85.3885620  91.0334050
  16.2435410  86.5994930  91.2849800   4.7841490  86.4642720  89.2308440
   5.5160310  86.1802000  88.6832330   5.0435160  86.2256000  90.1207820
   3.9456280  82.5807450  89.2354770   3.3165160  83.0492550  89.7840600
   4.0604110  81.7356670  89.6700960  11.4006000  76.6313110  75.3855970
  11.3200050  75.7167720  75.1147680  10.9870420  77.1280180  74.6795680
   9.5324040  78.4092130  77.2665240   8.7566140  77.9292570  77.5563810
  10.1836970  77.7297780  77.0921400   3.5489870  78.7211940  78.1441000
   2.7174750  78.4660650  78.5437510   4.1570850  78.7922710  78.8798920
  13.5531470  82.8152320  76.0464370  13.0913000  82.0439560  76.3751540
  14.3657020  82.8418390  76.5516820   3.5291130  82.7552030  78.3399020
   3.8319170  81.8649770  78.1609240   4.2734720  83.3122250  78.1121270
   9.7794780  85.1010330  75.6668360   9.1606220  85.5567830  75.0962800
  10.6346560  85.2561790  75.2658060   8.9733030  81.0849320  77.2735400
   8.9041310  80.1439260  77.1124530   9.7352890  81.1750730  77.8457970
  10.0038200  73.8919700  77.5004330  10.3803020  73.0191580  77.3878000
   9.9057710  74.2278400  76.6094770   4.1343210  72.2645330  72.9621770
   4.2409960  73.1649060  73.2690530   3.2235570  72.2163300  72.6716420
  13.7862320  71.3870140  74.4332670  14.6071940  70.8966710  74.4758150
  13.8196400  71.9767800  75.1864510   5.9750940  75.2331700  77.2946950
   6.4829160  75.7312670  77.9351970   6.5064180  74.4566900  77.1186310
  18.0761870  73.4036890  80.9976300  17.3714040  73.7918600  80.4791410
  18.3419790  74.0987180  81.5997230   4.2587040  69.8730260  81.5610370
   4.2605480  70.3902650  80.7556270   3.4291350  69.3960440  81.5380300
  10.6458130  79.9849570  73.0600270  10.0275400  80.4499020  72.4962990
  11.1581380  80.6777050  73.4769780   5.5089890  79.5125440  79.7383870
   5.1759270  80.1394360  80.3804940   5.6856570  80.0387320  78.9585540
  14.0223800  73.3270520  77.2060210  13.3179370  73.6155410  77.7863320
  14.3835960  74.1370630  76.8459770   3.9402370  71.5840220  79.5680820
   4.2819180  72.4282270  79.2734690   3.0018180  71.7323960  79.6846160
   4.7208990  81.4806240  81.5533050   5.3382990  82.1557320  81.2717500
   3.8602110  81.8894220  81.4620550  15.6386580  82.9445650  79.4687690
  14.9550100  83.6144760  79.4604360  16.1780870  83.1426300  78.7032550
  17.0910720  72.7725310  77.5969420  16.1435630  72.8064290  77.7284850
  17.4160710  73.5864260  77.9818780   7.6230260  69.0722490  75.8925410
   7.9305240  68.5169380  75.1760910   6.6930960  69.2066950  75.7098400
  13.1745320  84.7889780  78.1832870  13.1872480  84.3852070  77.3155130
  12.6220540  85.5637070  78.0794300  14.4690740  81.5106000  73.2723040
  14.3587070  80.5680330  73.3972460  14.4658990  81.8721640  74.1585800
  12.5730760  79.6919620  79.5115480  12.9899550  79.4779730  78.6768940
  13.2970580  79.9492410  80.0824100  10.0111020  77.1371320  72.6285530
   9.0840300  77.0708700  72.8574000  10.1635840  78.0751450  72.5140770
   9.9980100  73.4088320  69.6252690   9.0583770  73.5702280  69.7105150
  10.3163360  74.1274000  69.0788680  16.5192860  78.0906840  79.6031720
  15.6911490  78.1599930  79.1281850  17.1143340  78.6761150  79.1347550
  14.0408310  78.6991620  73.1320780  13.4220730  78.3611170  72.4847080
  14.0232760  78.0551380  73.8399970  13.4834870  74.8776160  80.5486590
  13.0706050  75.7029870  80.8026580  12.7510820  74.2921200  80.3562950
   5.6167660  77.6636060  75.4105260   5.2124660  76.9513310  74.9151160
   5.7030780  77.3189300  76.2993300   6.0849360  81.3503620  77.5744470
   5.7877650  80.7449090  76.8952250   7.0349180  81.3880930  77.4633830
   4.3296280  74.4379270  79.1904300   4.8810870  74.5474610  78.4157550
   4.8439790  74.8116870  79.9059530  14.1734970  84.9235490  81.2367570
  13.6965530  85.7307680  81.0440180  13.4896760  84.2713820  81.3893780
   5.1767790  81.0885310  84.2252270   4.2796320  81.3125280  84.4725670
   5.2020660  81.2120250  83.2763670  12.2173010  77.9378430  70.1393530
  12.6566290  77.1000860  69.9931350  12.9301430  78.5707830  70.2257670
   4.0039010  77.9598630  82.8009640   3.8646780  78.8321430  83.1697040
   3.1220370  77.6171440  82.6557580  10.3268390  82.8774500  74.1074770
  10.7664300  83.6198830  73.6930160  10.2655280  83.1201070  75.0313730
   5.8019360  83.9020330  85.0094790   5.7734790  84.3063280  84.1423220
   5.6384330  82.9730690  84.8466390  15.7990150  69.1921240  68.4534570
  15.4862810  69.2848070  69.3533640  16.5602620  69.7702270  68.4032000
   2.3172290  76.5581040  72.9111910   2.1969890  77.2843130  72.2993180
   2.0073180  75.7883950  72.4339820  17.7534180  84.6847430  86.3058960
  18.2293900  85.1630320  86.9848040  18.3741340  84.6164920  85.5804460
  17.1567430  81.8760280  83.4658970  17.2830490  81.6372160  82.5476150
  17.1988810  81.0444820  83.9381050  11.0184170  85.5788280  82.0353780
  11.5328840  85.4896290  82.8376210  10.1753250  85.9247980  82.3281690
  12.9938570  85.8643620  71.4637780  12.8339710  85.5746560  72.3619610
  12.8285280  85.0883750  70.9283010   5.4726950  85.6442150  73.2409400
   5.2969430  84.7277690  73.0277200   4.6182690  86.0029440  73.4807200
  12.6964700  83.3731180  70.0235780  12.0029860  83.3708470  69.3638060
  13.4387560  82.9490500  69.5929950  12.2614630  84.9993890  74.0984270
  12.7171580  84.2183270  74.4122890  12.6007150  85.7100710  74.6425450
  17.0091440  73.9292740  84.4308710  16.3935710  74.4372410  83.9024170
  16.6887860  73.0291070  84.3734650   4.7835950  69.9016110  76.2935580
   4.3404100  70.6825650  75.9620100   5.3420940  70.2246000  77.0006520
   9.0705760  72.7684630  81.8970900   8.6085130  72.9767650  82.7090840
   8.6683870  71.9543980  81.5941570  14.0710270  73.9893580  83.0267560
  13.2203860  73.6899330  83.3476630  13.9112060  74.2335590  82.1151380
  11.1659980  75.4895330  85.1266350  11.4913390  74.6559080  84.7868580
  11.9540310  76.0123850  85.2744680   7.8994770  69.5226810  71.1741410
   7.2748950  69.5186680  71.8994720   7.8124890  68.6557770  70.7777380
   6.8211850  70.4463440  78.1525180   7.1184180  71.3526270  78.0717200
   7.3697410  69.9582220  77.5384750   4.5750170  75.0249680  74.0216830
   4.3491090  74.8086850  74.9263450   3.7942700  75.4578140  73.6762800
  11.8047930  75.0313050  72.6207480  11.2056820  75.7548850  72.4371100
  12.3527540  74.9689830  71.8383930   7.0149380  75.9235260  84.6877100
   6.9192980  74.9829990  84.5377500   7.8581360  76.1450330  84.2925170
  10.4112800  73.6676590  74.6510760  10.8042370  73.9848790  73.8379450
  10.7729650  72.7888470  74.7655280   8.7204970  72.4183900  85.9107620
   8.0303290  72.2256100  86.5453710   9.4637270  72.7018540  86.4431920
  10.9967940  76.2582340  78.7461540  10.2649060  76.7669150  79.0951640
  10.5992280  75.4412320  78.4450320   7.4345330  72.9336540  77.1514030
   7.4381390  72.4926490  76.3018570   8.3296450  73.2553870  77.2585850
   3.2847710  72.8163030  76.1108240   2.9447760  73.2938260  76.8675290
   2.5225030  72.3628150  75.7509340   7.4965480  73.9348620  70.1420790
   7.6178300  73.8935100  71.0906610   7.1113990  74.7972770  69.9867520
  11.4593850  71.7116020  78.1584480  11.4766590  72.1624670  79.0026330
  11.2109430  70.8121660  78.3717920   6.5086980  76.2449760  69.5404090
   5.9403880  75.7968010  68.9140000   7.2175980  76.6042540  69.0069240
  14.8864600  69.1248200  83.9970860  15.2110370  68.3937860  84.5228840
  14.9221110  68.8061840  83.0951850   7.7353300  76.9938320  78.8979440
   8.1023430  76.5196890  79.6440780   7.5458360  77.8679890  79.2387780
   5.5252670  76.0346960  81.2163650   5.2209740  76.9138940  81.4414010
   6.4799130  76.0946750  81.2521090   4.0534460  80.2407950  71.8130500
   3.2796720  79.7005570  71.6529220   4.7829090  79.7214560  71.4748260
  14.8122440  79.2373310  77.6056890  15.5321560  79.7328600  77.2153000
  14.6104260  78.5591200  76.9610760  10.2732380  70.6311270  71.7486280
   9.4596990  70.1324440  71.6731590  10.0794330  71.4709520  71.3322630
  10.1941240  79.3082370  83.4925890  10.1278550  78.3878040  83.2383480
   9.5646380  79.4057810  84.2070530  12.9880770  75.0030920  70.0448440
  13.8760390  75.3148150  69.8699780  12.9585860  74.1303170  69.6529020
   4.0971860  79.9088330  75.4509310   4.6150530  79.1056590  75.3966200
   3.6455880  79.8467470  76.2926140   8.9841360  81.1754610  70.7236610
   9.3257060  81.9196840  70.2279930   8.1554070  81.4885730  71.0861440
   4.7829520  77.3333940  85.2474560   4.4829660  77.4791120  84.3502380
   5.5540760  76.7739230  85.1547950  10.1257970  82.1302940  83.2429690
  10.1402510  81.1983900  83.0248600   9.4183070  82.2162700  83.8819460
  15.2595040  76.3142760  69.5128300  15.1758760  76.7456980  68.6624740
  15.9789230  76.7741110  69.9455120  16.3369180  78.7710280  82.5898270
  15.6117370  79.3639060  82.3927660  16.8644640  78.7633820  81.7911640
  16.2882290  83.1685020  72.2410430  15.6458450  82.5140640  72.5154150
  15.9012950  83.5740110  71.4651100  11.8668770  80.4970450  76.0882120
  12.2192590  79.8998580  75.4283490  10.9831100  80.1714680  76.2590370
   7.9532050  81.2568140  73.4952530   8.6403180  81.8037350  73.8760120
   7.1664470  81.8008870  73.5302140   7.2559260  78.2614170  73.1077890
   7.7122040  79.0719420  73.3338080   6.9047470  77.9437310  73.9396380
   9.5591870  83.7720510  80.3370190  10.2034090  83.9779890  81.0143610
   9.9221310  83.0108910  79.8841040   3.1571040  68.6051820  73.5800410
   3.0285670  68.5969720  74.5285330   2.3333060  68.9434910  73.2291420
  10.8323950  81.7752860  79.0547640  11.4746180  81.0746020  79.1679810
  11.3573300  82.5551300  78.8744530  14.6779670  82.0601480  68.7786780
  14.4517250  81.3431920  69.3711420  14.2875870  81.8113920  67.9408530
  12.6061570  82.5747760  82.2583700  12.9417810  83.1614450  82.9361620
  11.6861910  82.4440470  82.4881490  14.2595920  79.9773420  70.4400940
  13.9717620  80.4386110  71.2278820  15.0548090  79.5171190  70.7085160
   8.4350150  82.6239090  85.4271760   8.1147020  81.9048330  85.9717450
   7.7608510  83.2994160  85.5007820   6.4764320  83.4699540  70.3704910
   6.4674420  84.2029230  69.7549420   5.5562680  83.2231120  70.4631870
  11.6503750  72.8565250  80.7908560  12.0184570  72.0360460  81.1188130
  10.7901950  72.9167140  81.2064210  15.0165780  71.8122190  71.5996120
  14.3878940  71.9167860  70.8854350  14.5217700  72.0318970  72.3890000
   9.4623920  83.5327780  69.0330100   9.5635900  83.3291770  68.1032080
   8.5625660  83.2786060  69.2377880   6.9849810  74.0908140  73.0154000
   6.2765960  74.5594480  73.4567610   7.2694290  73.4330150  73.6499190
   8.6105740  75.5104840  81.0146530   9.1090990  75.9850660  81.6798380
   8.7528690  74.5868360  81.2216560  11.0165240  70.8158800  74.4549790
  10.8933020  70.8344930  73.5059300  11.9649800  70.8637740  74.5748190
   8.1042030  86.0514100  73.7277770   8.3583530  86.0135490  72.8057140
   7.1554510  85.9247430  73.7206020   5.1884830  72.3993220  70.3904710
   6.0375360  72.8363370  70.3244900   4.8216100  72.7113480  71.2176770
  15.8172600  71.7272800  81.8574920  15.3146200  72.4678200  82.1968730
  16.6329260  72.1156800  81.5411710  14.1094610  76.9705980  75.3036280
  13.1684750  76.9856210  75.4783970  14.4238680  76.1841940  75.7496580
   4.0876250  78.6525580  68.8640240   4.8539520  78.5406940  69.4265670
   4.1650940  77.9563550  68.2117010   2.7823010  76.0850650  69.5473130
   2.8626600  75.1378160  69.6590530   3.6742760  76.4157530  69.6533790
  16.1120190  84.1414830  76.9790540  16.2367610  84.9646000  77.4514350
  16.9785750  83.9305560  76.6314690   3.5837720  86.2346040  76.6507670
   4.3200200  85.6861500  76.9216240   3.9678640  87.1002050  76.5113660
   2.5896000  85.4192110  85.8393250   3.3908730  85.7404160  86.2528650
   2.0747820  85.0587690  86.5613160   6.6940030  85.4076350  68.4733240
   7.4868640  85.6965180  68.0215030   6.1744380  84.9768520  67.7945720
  11.4260630  81.5271980  85.7868660  10.8198790  81.5503580  85.0464410
  11.1214740  80.7955020  86.3235910  12.8561000  85.2552270  84.3978070
  13.8082750  85.1710290  84.3478310  12.7089220  85.9193980  85.0711860
  15.7470200  84.6346480  69.8969980  15.4611710  84.2211620  69.0824160
  15.5489750  85.5634190  69.7770500   7.2117430  80.6279760  68.3375590
   7.1068070  80.0132110  69.0636970   7.0441650  80.1045650  67.5538600
   7.3631750  79.3136560  84.3164820   6.5977420  79.8821560  84.2319490
   7.5447710  79.0212770  83.4233050  10.4520160  79.6899790  68.9417580
   9.9030260  80.1369090  69.5860320  11.0739420  79.1849040  69.4655250
  14.5055100  81.0441890  84.8739840  15.2464570  81.3817650  84.3707300
  13.7427780  81.2133950  84.3209610   2.3416890  76.0495160  85.6779370
   2.3822230  75.7509030  86.5864600   3.1962390  76.4502770  85.5186890
   6.1195280  78.6490710  70.8382880   6.5411700  78.4830580  71.6814270
   6.2446120  77.8390940  70.3438020   4.2822700  74.6287260  83.6453860
   3.7519160  74.1378210  83.0177200   4.9510770  75.0571460  83.1111790
   8.6322920  77.6728320  68.0859980   9.1528580  76.9577340  67.7201130
   9.2791320  78.3114190  68.3860490  13.1800760  79.0956720  83.4095050
  13.5941780  79.2501800  84.2585470  12.2451760  79.2211940  83.5720830
  13.6522930  76.4352880  85.4134200  14.2343700  75.6805200  85.3254680
  13.8284700  76.9660320  84.6365680   4.7695000  71.5949630  83.7251150
   4.6751870  70.9770380  83.0002020   4.1892390  72.3215920  83.4981060
   7.5356440  70.1522870  80.7578540   7.0873740  70.1747130  79.9124090
   6.9021640  69.7541890  81.3548840   7.9415990  79.0477200  81.3790980
   8.3604100  79.8909930  81.2067220   7.0224620  79.1849240  81.1497760
  10.2779890  76.7793380  82.7628820  10.3976100  76.1834520  83.5023660
  11.1373890  76.8163070  82.3430120  12.6167790  77.3330570  81.3391330
  12.0903010  77.8573190  80.7356470  12.9599130  77.9657960  81.9701060
   5.0154180  74.7223940  67.7841040   4.8143240  73.8591300  68.1454380
   4.8446230  74.6357300  66.8462640   5.7923410  85.3530210  82.4948710
   5.2544500  86.0776270  82.1757410   6.0457370  84.8760550  81.7046050
   7.0448660  73.3214730  84.0204640   7.6348350  73.0130580  84.7082460
   6.2268900  72.8494480  84.1764540  11.8642090  72.9380540  84.2537660
  11.1757610  72.2762080  84.1887650  12.5848110  72.4918810  84.6986120
  12.4942490  69.5332170  70.3127920  12.7744780  68.6900070  70.6687340
  11.7208220  69.7655280  70.8266670   3.8136980  71.8224560  67.7718920
   4.1162880  71.8291990  66.8638070   4.5531570  71.4722420  68.2686580
   8.6485620  86.5881420  82.7535360   8.5744320  87.4916560  83.0607730
   7.7464460  86.2693320  82.7257430   7.0321910  70.7659180  68.7575120
   6.6843910  70.0883170  68.1777570   7.2334680  70.3048690  69.5718510
   9.1970950  85.7539930  70.3761720  10.0921740  86.0924900  70.3980480
   9.2288580  85.0319340  69.7486000   2.8367110  81.1266980  68.6048720
   3.2741980  81.6696650  69.2606300   3.3214840  80.3013930  68.6145060
   4.6474830  82.2465020  73.7170950   4.3470370  82.1229990  74.6174860
   4.5412320  81.3873610  73.3086680  16.1765300  84.2843600  83.0827920
  15.5767290  84.3436160  82.3391840  16.3059200  83.3448580  83.2124770
  17.4166750  82.0261420  68.4197630  16.5859710  82.0938070  68.8904860
  17.5938580  82.9165540  68.1164490  16.8723210  78.7708900  70.9231830
  17.6342120  79.3405550  71.0291520  16.8877580  78.2036100  71.6940140
  17.8783180  79.6259000  75.7673760  18.2492010  78.8426320  75.3609730
  18.5185110  80.3148100  75.5891060  14.8616940  81.0095580  81.1804080
  14.0476780  81.4392740  81.4429870  15.2691140  81.6213990  80.5673130
  16.9242380  79.0643270  68.0804350  17.1991220  79.9722150  67.9523570
  16.7353120  79.0005800  69.0166340  13.3217990  72.0888120  69.3757980
  13.7402870  71.9019100  68.5354640  13.0154050  71.2367170  69.6860910
  16.8207720  77.0012260  73.0733780  16.4451320  76.2340190  72.6415070
  16.0910840  77.3834960  73.5608710  16.2107340  76.1483780  82.7073300
  15.9793430  75.9196530  81.8071250  16.4711890  77.0683330  82.6618190
  14.6495410  71.3740210  85.4853000  15.5265590  71.3823610  85.8687000
  14.6616250  70.6371050  84.8745350  16.0958680  75.2269750  76.3741020
  16.6196160  74.7332400  75.7431190  16.6818100  75.3620110  77.1188590
  16.2748400  75.3109620  79.8960570  15.3251110  75.2773160  80.0105560
  16.4561410  76.2209730  79.6610340   1.7767000  69.6150630  68.0461850
   2.4995130  70.1559570  68.3643070   2.0491520  69.3414050  67.1703390
  15.5858650  74.4843100  72.3133430  16.0817770  74.2513970  73.0982310
  15.3874720  73.6454940  71.8971070  17.0145810  73.1204050  74.8471110
  16.9045090  72.9660090  75.7853380  17.7753400  72.5924990  74.6046520
  15.3611530  69.0598180  81.3054110  15.9983750  69.6732320  81.6713300
  15.5086420  69.0958840  80.3603340  17.9036080  70.9511970  68.0877250
  18.8285390  70.8193150  67.8795540  17.8811870  71.0304790  69.0413700
  17.9774570  71.7222630  70.7133960  17.1826070  71.6567750  71.2426870
  18.1817850  72.6573270  70.7019310  14.9192990  85.7614180  74.7072350
  15.5152060  85.4398750  74.0306770  15.1771140  85.2886000  75.4985620
   2.8255560  82.1932090  84.8562980   2.7825190  81.8225000  85.7377440
   2.9566570  83.1309660  84.9964800   6.5261590  83.7491680  80.4572700
   6.2852950  84.0166240  79.5703220   7.4664230  83.9197410  80.5123560
   8.7316010  70.2124370  84.2129210   8.6704900  70.8046200  84.9624620
   9.6716390  70.1050330  84.0679470  11.3690570  69.8694430  83.8521500
  11.9830980  70.1873720  83.1902580  11.9140130  69.3843020  84.4717360
  17.7865750  85.7686060  81.2583340  17.2924030  86.1654930  80.5410470
  17.1779040  85.1435270  81.6520620   1.8911830  68.5488690  83.9660560
   2.4394820  68.3676740  83.2026670   1.9567140  67.7582800  84.5016870
   2.6643590  85.1394340  81.9760760   2.0703910  85.0079040  82.7150800
   2.6567430  84.3032480  81.5102860  12.1098610  68.4326570  80.1790790
  11.2358450  68.7661680  79.9763720  12.0009360  67.9599750  81.0042660
  13.0170590  70.6397440  81.5632510  12.6883950  69.8249200  81.1834240
  13.9652890  70.5967250  81.4398200  15.4705200  86.4109480  78.5370080
  15.0108170  87.1625290  78.1628100  14.8417660  85.6915950  78.4784880
   5.9000920  84.7197720  77.7118210   6.4165940  84.1085080  77.1866470
   6.5498300  85.2226500  78.2029220   8.6396420  85.6106210  78.5387190
   8.9274230  85.3560510  77.6620200   9.1519640  85.0583570  79.1292760
   9.8573430  69.3496410  79.1183700   9.0745220  69.8241910  79.3980460
   9.5636360  68.4451240  79.0096880  14.4094500  70.0519510  77.1632790
  14.8502590  69.9964610  76.3154390  14.1402090  70.9677520  77.2342970
  16.2733070  69.6834750  75.1741610  16.2121470  68.7395970  75.0272630
  17.0525100  69.7914840  75.7195070   7.7427650  71.7683160  74.6299730
   6.9302160  71.3940050  74.2895610   8.2469290  71.0128240  74.9320920
  12.2452630  68.4325610  75.8682800  12.8482000  69.0045820  76.3431320
  11.5045620  68.9965050  75.6456700  15.3887230  68.8347170  71.1423080
  15.5837860  69.7330620  71.4090510  14.6017100  68.6034250  71.6356030
   2.1848520  84.5160340  71.5815700   1.6596140  84.8968370  70.8777660
   2.1093100  85.1411110  72.3025410   3.5738990  70.1807940  70.1799390
   4.1031750  69.3937740  70.0507340   4.2067310  70.8599130  70.4134920
   5.7676830  69.9183080  73.2344780   5.1379570  69.2170390  73.4014910
   5.2281970  70.6787210  73.0177940   8.7068780  86.5322310  85.9055390
   9.6336090  86.2966580  85.9491350   8.6919210  87.3594310  85.4241420
  16.9413840  86.0747880  72.9029640  17.1166030  85.3885620  72.2590560
  16.2435410  86.5994930  72.5106310   5.8932390  69.1967060  85.6697270
   5.6116660  69.7000660  84.9058090   6.2752090  68.3988810  85.3039400
   4.7841490  86.4642720  70.4564950   5.5160310  86.1802000  69.9088840
   5.0435160  86.2256000  71.3464330   3.9456280  82.5807450  70.4611280
   3.3165160  83.0492550  71.0097110   4.0604110  81.7356670  70.8957470
  12.4947850  68.6120640  86.2477740  12.3813300  68.9315250  87.1429260
  13.3117590  69.0133150  85.9515020  15.2746340  85.7592170  85.7296430
  16.0671660  85.2641400  85.5222390  15.5679490  86.4382310  86.3372040
  11.4006000  76.6313110  56.6112480  11.3200050  75.7167720  56.3404190
  10.9870420  77.1280180  55.9052190   9.5324040  78.4092130  58.4921750
   8.7566140  77.9292570  58.7820320  10.1836970  77.7297780  58.3177910
   3.5489870  78.7211940  59.3697510   2.7174750  78.4660650  59.7694020
   4.1570850  78.7922710  60.1055430  13.5531470  82.8152320  57.2720880
  13.0913000  82.0439560  57.6008050  14.3657020  82.8418390  57.7773330
   3.5291130  82.7552030  59.5655530   3.8319170  81.8649770  59.3865750
   4.2734720  83.3122250  59.3377780   9.7794780  85.1010330  56.8924870
   9.1606220  85.5567830  56.3219310  10.6346560  85.2561790  56.4914570
   8.9733030  81.0849320  58.4991910   8.9041310  80.1439260  58.3381040
   9.7352890  81.1750730  59.0714480  10.0038200  73.8919700  58.7260840
  10.3803020  73.0191580  58.6134510   9.9057710  74.2278400  57.8351280
   4.1343210  72.2645330  54.1878280   4.2409960  73.1649060  54.4947040
   3.2235570  72.2163300  53.8972930  13.7862320  71.3870140  55.6589180
  14.6071940  70.8966710  55.7014660  13.8196400  71.9767800  56.4121020
   5.9750940  75.2331700  58.5203460   6.4829160  75.7312670  59.1608480
   6.5064180  74.4566900  58.3442820  18.0761870  73.4036890  62.2232810
  17.3714040  73.7918600  61.7047920  18.3419790  74.0987180  62.8253740
   4.2587040  69.8730260  62.7866880   4.2605480  70.3902650  61.9812780
   3.4291350  69.3960440  62.7636810  10.6458130  79.9849570  54.2856780
  10.0275400  80.4499020  53.7219500  11.1581380  80.6777050  54.7026290
   5.5089890  79.5125440  60.9640380   5.1759270  80.1394360  61.6061450
   5.6856570  80.0387320  60.1842050  14.0223800  73.3270520  58.4316720
  13.3179370  73.6155410  59.0119830  14.3835960  74.1370630  58.0716280
   3.9402370  71.5840220  60.7937330   4.2819180  72.4282270  60.4991200
   3.0018180  71.7323960  60.9102670   4.7208990  81.4806240  62.7789560
   5.3382990  82.1557320  62.4974010   3.8602110  81.8894220  62.6877060
  15.6386580  82.9445650  60.6944200  14.9550100  83.6144760  60.6860870
  16.1780870  83.1426300  59.9289060  17.0910720  72.7725310  58.8225930
  16.1435630  72.8064290  58.9541360  17.4160710  73.5864260  59.2075290
   7.6230260  69.0722490  57.1181920   7.9305240  68.5169380  56.4017420
   6.6930960  69.2066950  56.9354910  13.1745320  84.7889780  59.4089380
  13.1872480  84.3852070  58.5411640  12.6220540  85.5637070  59.3050810
  14.4690740  81.5106000  54.4979550  14.3587070  80.5680330  54.6228970
  14.4658990  81.8721640  55.3842310  12.5730760  79.6919620  60.7371990
  12.9899550  79.4779730  59.9025450  13.2970580  79.9492410  61.3080610
  10.0111020  77.1371320  53.8542040   9.0840300  77.0708700  54.0830510
  10.1635840  78.0751450  53.7397280   9.9980100  73.4088320  50.8509200
   9.0583770  73.5702280  50.9361660  10.3163360  74.1274000  50.3045190
  16.5192860  78.0906840  60.8288230  15.6911490  78.1599930  60.3538360
  17.1143340  78.6761150  60.3604060  14.0408310  78.6991620  54.3577290
  13.4220730  78.3611170  53.7103590  14.0232760  78.0551380  55.0656480
  13.4834870  74.8776160  61.7743100  13.0706050  75.7029870  62.0283090
  12.7510820  74.2921200  61.5819460   5.6167660  77.6636060  56.6361770
   5.2124660  76.9513310  56.1407670   5.7030780  77.3189300  57.5249810
   6.0849360  81.3503620  58.8000980   5.7877650  80.7449090  58.1208760
   7.0349180  81.3880930  58.6890340   4.3296280  74.4379270  60.4160810
   4.8810870  74.5474610  59.6414060   4.8439790  74.8116870  61.1316040
  14.1734970  84.9235490  62.4624080  13.6965530  85.7307680  62.2696690
  13.4896760  84.2713820  62.6150290   5.1767790  81.0885310  65.4508780
   4.2796320  81.3125280  65.6982180   5.2020660  81.2120250  64.5020180
  12.2173010  77.9378430  51.3650040  12.6566290  77.1000860  51.2187860
  12.9301430  78.5707830  51.4514180   4.0039010  77.9598630  64.0266150
   3.8646780  78.8321430  64.3953550   3.1220370  77.6171440  63.8814090
  10.3268390  82.8774500  55.3331280  10.7664300  83.6198830  54.9186670
  10.2655280  83.1201070  56.2570240   5.8019360  83.9020330  66.2351300
   5.7734790  84.3063280  65.3679730   5.6384330  82.9730690  66.0722900
  15.7990150  69.1921240  49.6791080  15.4862810  69.2848070  50.5790150
  16.5602620  69.7702270  49.6288510   2.3172290  76.5581040  54.1368420
   2.1969890  77.2843130  53.5249690   2.0073180  75.7883950  53.6596330
  17.7534180  84.6847430  67.5315470  18.2293900  85.1630320  68.2104550
  18.3741340  84.6164920  66.8060970  17.1567430  81.8760280  64.6915480
  17.2830490  81.6372160  63.7732660  17.1988810  81.0444820  65.1637560
  11.0184170  85.5788280  63.2610290  11.5328840  85.4896290  64.0632720
  10.1753250  85.9247980  63.5538200  12.9938570  85.8643620  52.6894290
  12.8339710  85.5746560  53.5876120  12.8285280  85.0883750  52.1539520
   5.4726950  85.6442150  54.4665910   5.2969430  84.7277690  54.2533710
   4.6182690  86.0029440  54.7063710  12.6964700  83.3731180  51.2492290
  12.0029860  83.3708470  50.5894570  13.4387560  82.9490500  50.8186460
  12.2614630  84.9993890  55.3240780  12.7171580  84.2183270  55.6379400
  12.6007150  85.7100710  55.8681960  17.0091440  73.9292740  65.6565220
  16.3935710  74.4372410  65.1280680  16.6887860  73.0291070  65.5991160
   4.7835950  69.9016110  57.5192090   4.3404100  70.6825650  57.1876610
   5.3420940  70.2246000  58.2263030   9.0705760  72.7684630  63.1227410
   8.6085130  72.9767650  63.9347350   8.6683870  71.9543980  62.8198080
  14.0710270  73.9893580  64.2524070  13.2203860  73.6899330  64.5733140
  13.9112060  74.2335590  63.3407890  11.1659980  75.4895330  66.3522860
  11.4913390  74.6559080  66.0125090  11.9540310  76.0123850  66.5001190
   7.8994770  69.5226810  52.3997920   7.2748950  69.5186680  53.1251230
   7.8124890  68.6557770  52.0033890   6.8211850  70.4463440  59.3781690
   7.1184180  71.3526270  59.2973710   7.3697410  69.9582220  58.7641260
   4.5750170  75.0249680  55.2473340   4.3491090  74.8086850  56.1519960
   3.7942700  75.4578140  54.9019310  11.8047930  75.0313050  53.8463990
  11.2056820  75.7548850  53.6627610  12.3527540  74.9689830  53.0640440
   7.0149380  75.9235260  65.9133610   6.9192980  74.9829990  65.7634010
   7.8581360  76.1450330  65.5181680  10.4112800  73.6676590  55.8767270
  10.8042370  73.9848790  55.0635960  10.7729650  72.7888470  55.9911790
   8.7204970  72.4183900  67.1364130   8.0303290  72.2256100  67.7710220
   9.4637270  72.7018540  67.6688430  10.9967940  76.2582340  59.9718050
  10.2649060  76.7669150  60.3208150  10.5992280  75.4412320  59.6706830
   7.4345330  72.9336540  58.3770540   7.4381390  72.4926490  57.5275080
   8.3296450  73.2553870  58.4842360   3.2847710  72.8163030  57.3364750
   2.9447760  73.2938260  58.0931800   2.5225030  72.3628150  56.9765850
   7.4965480  73.9348620  51.3677300   7.6178300  73.8935100  52.3163120
   7.1113990  74.7972770  51.2124030  11.4593850  71.7116020  59.3840990
  11.4766590  72.1624670  60.2282840  11.2109430  70.8121660  59.5974430
   6.5086980  76.2449760  50.7660600   5.9403880  75.7968010  50.1396510
   7.2175980  76.6042540  50.2325750  14.8864600  69.1248200  65.2227370
  15.2110370  68.3937860  65.7485350  14.9221110  68.8061840  64.3208360
   7.7353300  76.9938320  60.1235950   8.1023430  76.5196890  60.8697290
   7.5458360  77.8679890  60.4644290   5.5252670  76.0346960  62.4420160
   5.2209740  76.9138940  62.6670520   6.4799130  76.0946750  62.4777600
   4.0534460  80.2407950  53.0387010   3.2796720  79.7005570  52.8785730
   4.7829090  79.7214560  52.7004770  14.8122440  79.2373310  58.8313400
  15.5321560  79.7328600  58.4409510  14.6104260  78.5591200  58.1867270
  10.2732380  70.6311270  52.9742790   9.4596990  70.1324440  52.8988100
  10.0794330  71.4709520  52.5579140  10.1941240  79.3082370  64.7182400
  10.1278550  78.3878040  64.4639990   9.5646380  79.4057810  65.4327040
  12.9880770  75.0030920  51.2704950  13.8760390  75.3148150  51.0956290
  12.9585860  74.1303170  50.8785530   4.0971860  79.9088330  56.6765820
   4.6150530  79.1056590  56.6222710   3.6455880  79.8467470  57.5182650
   8.9841360  81.1754610  51.9493120   9.3257060  81.9196840  51.4536440
   8.1554070  81.4885730  52.3117950   4.7829520  77.3333940  66.4731070
   4.4829660  77.4791120  65.5758890   5.5540760  76.7739230  66.3804460
  10.1257970  82.1302940  64.4686200  10.1402510  81.1983900  64.2505110
   9.4183070  82.2162700  65.1075970  15.2595040  76.3142760  50.7384810
  15.1758760  76.7456980  49.8881250  15.9789230  76.7741110  51.1711630
  16.3369180  78.7710280  63.8154780  15.6117370  79.3639060  63.6184170
  16.8644640  78.7633820  63.0168150  16.2882290  83.1685020  53.4666940
  15.6458450  82.5140640  53.7410660  15.9012950  83.5740110  52.6907610
  11.8668770  80.4970450  57.3138630  12.2192590  79.8998580  56.6540000
  10.9831100  80.1714680  57.4846880   7.9532050  81.2568140  54.7209040
   8.6403180  81.8037350  55.1016630   7.1664470  81.8008870  54.7558650
   7.2559260  78.2614170  54.3334400   7.7122040  79.0719420  54.5594590
   6.9047470  77.9437310  55.1652890   9.5591870  83.7720510  61.5626700
  10.2034090  83.9779890  62.2400120   9.9221310  83.0108910  61.1097550
   3.1571040  68.6051820  54.8056920   3.0285670  68.5969720  55.7541840
   2.3333060  68.9434910  54.4547930  10.8323950  81.7752860  60.2804150
  11.4746180  81.0746020  60.3936320  11.3573300  82.5551300  60.1001040
  14.6779670  82.0601480  50.0043290  14.4517250  81.3431920  50.5967930
  14.2875870  81.8113920  49.1665040  12.6061570  82.5747760  63.4840210
  12.9417810  83.1614450  64.1618130  11.6861910  82.4440470  63.7138000
  14.2595920  79.9773420  51.6657450  13.9717620  80.4386110  52.4535330
  15.0548090  79.5171190  51.9341670   8.4350150  82.6239090  66.6528270
   8.1147020  81.9048330  67.1973960   7.7608510  83.2994160  66.7264330
   6.4764320  83.4699540  51.5961420   6.4674420  84.2029230  50.9805930
   5.5562680  83.2231120  51.6888380  11.6503750  72.8565250  62.0165070
  12.0184570  72.0360460  62.3444640  10.7901950  72.9167140  62.4320720
  15.0165780  71.8122190  52.8252630  14.3878940  71.9167860  52.1110860
  14.5217700  72.0318970  53.6146510   9.4623920  83.5327780  50.2586610
   9.5635900  83.3291770  49.3288590   8.5625660  83.2786060  50.4634390
   6.9849810  74.0908140  54.2410510   6.2765960  74.5594480  54.6824120
   7.2694290  73.4330150  54.8755700   8.6105740  75.5104840  62.2403040
   9.1090990  75.9850660  62.9054890   8.7528690  74.5868360  62.4473070
  11.0165240  70.8158800  55.6806300  10.8933020  70.8344930  54.7315810
  11.9649800  70.8637740  55.8004700   8.1042030  86.0514100  54.9534280
   8.3583530  86.0135490  54.0313650   7.1554510  85.9247430  54.9462530
   5.1884830  72.3993220  51.6161220   6.0375360  72.8363370  51.5501410
   4.8216100  72.7113480  52.4433280  15.8172600  71.7272800  63.0831430
  15.3146200  72.4678200  63.4225240  16.6329260  72.1156800  62.7668220
  14.1094610  76.9705980  56.5292790  13.1684750  76.9856210  56.7040480
  14.4238680  76.1841940  56.9753090   4.0876250  78.6525580  50.0896750
   4.8539520  78.5406940  50.6522180   4.1650940  77.9563550  49.4373520
   2.7823010  76.0850650  50.7729640   2.8626600  75.1378160  50.8847040
   3.6742760  76.4157530  50.8790300  16.1120190  84.1414830  58.2047050
  16.2367610  84.9646000  58.6770860  16.9785750  83.9305560  57.8571200
   3.5837720  86.2346040  57.8764180   4.3200200  85.6861500  58.1472750
   3.9678640  87.1002050  57.7370170   2.5896000  85.4192110  67.0649760
   3.3908730  85.7404160  67.4785160   2.0747820  85.0587690  67.7869670
   6.6940030  85.4076350  49.6989750   7.4868640  85.6965180  49.2471540
   6.1744380  84.9768520  49.0202230  11.4260630  81.5271980  67.0125170
  10.8198790  81.5503580  66.2720920  11.1214740  80.7955020  67.5492420
  12.8561000  85.2552270  65.6234580  13.8082750  85.1710290  65.5734820
  12.7089220  85.9193980  66.2968370  15.7470200  84.6346480  51.1226490
  15.4611710  84.2211620  50.3080670  15.5489750  85.5634190  51.0027010
   7.2117430  80.6279760  49.5632100   7.1068070  80.0132110  50.2893480
   7.0441650  80.1045650  48.7795110   7.3631750  79.3136560  65.5421330
   6.5977420  79.8821560  65.4576000   7.5447710  79.0212770  64.6489560
  10.4520160  79.6899790  50.1674090   9.9030260  80.1369090  50.8116830
  11.0739420  79.1849040  50.6911760  14.5055100  81.0441890  66.0996350
  15.2464570  81.3817650  65.5963810  13.7427780  81.2133950  65.5466120
   2.3416890  76.0495160  66.9035880   2.3822230  75.7509030  67.8121110
   3.1962390  76.4502770  66.7443400   6.1195280  78.6490710  52.0639390
   6.5411700  78.4830580  52.9070780   6.2446120  77.8390940  51.5694530
   4.2822700  74.6287260  64.8710370   3.7519160  74.1378210  64.2433710
   4.9510770  75.0571460  64.3368300   8.6322920  77.6728320  49.3116490
   9.1528580  76.9577340  48.9457640   9.2791320  78.3114190  49.6117000
  13.1800760  79.0956720  64.6351560  13.5941780  79.2501800  65.4841980
  12.2451760  79.2211940  64.7977340  13.6522930  76.4352880  66.6390710
  14.2343700  75.6805200  66.5511190  13.8284700  76.9660320  65.8622190
   4.7695000  71.5949630  64.9507660   4.6751870  70.9770380  64.2258530
   4.1892390  72.3215920  64.7237570   7.5356440  70.1522870  61.9835050
   7.0873740  70.1747130  61.1380600   6.9021640  69.7541890  62.5805350
   7.9415990  79.0477200  62.6047490   8.3604100  79.8909930  62.4323730
   7.0224620  79.1849240  62.3754270  10.2779890  76.7793380  63.9885330
  10.3976100  76.1834520  64.7280170  11.1373890  76.8163070  63.5686630
  12.6167790  77.3330570  62.5647840  12.0903010  77.8573190  61.9612980
  12.9599130  77.9657960  63.1957570   5.0154180  74.7223940  49.0097550
   4.8143240  73.8591300  49.3710890   4.8446230  74.6357300  48.0719150
   5.7923410  85.3530210  63.7205220   5.2544500  86.0776270  63.4013920
   6.0457370  84.8760550  62.9302560   7.0448660  73.3214730  65.2461150
   7.6348350  73.0130580  65.9338970   6.2268900  72.8494480  65.4021050
  11.8642090  72.9380540  65.4794170  11.1757610  72.2762080  65.4144160
  12.5848110  72.4918810  65.9242630  12.4942490  69.5332170  51.5384430
  12.7744780  68.6900070  51.8943850  11.7208220  69.7655280  52.0523180
   3.8136980  71.8224560  48.9975430   4.1162880  71.8291990  48.0894580
   4.5531570  71.4722420  49.4943090   8.6485620  86.5881420  63.9791870
   8.5744320  87.4916560  64.2864240   7.7464460  86.2693320  63.9513940
   7.0321910  70.7659180  49.9831630   6.6843910  70.0883170  49.4034080
   7.2334680  70.3048690  50.7975020   9.1970950  85.7539930  51.6018230
  10.0921740  86.0924900  51.6236990   9.2288580  85.0319340  50.9742510
   2.8367110  81.1266980  49.8305230   3.2741980  81.6696650  50.4862810
   3.3214840  80.3013930  49.8401570   4.6474830  82.2465020  54.9427460
   4.3470370  82.1229990  55.8431370   4.5412320  81.3873610  54.5343190
  16.1765300  84.2843600  64.3084430  15.5767290  84.3436160  63.5648350
  16.3059200  83.3448580  64.4381280  17.4166750  82.0261420  49.6454140
  16.5859710  82.0938070  50.1161370  17.5938580  82.9165540  49.3421000
  16.8723210  78.7708900  52.1488340  17.6342120  79.3405550  52.2548030
  16.8877580  78.2036100  52.9196650  17.8783180  79.6259000  56.9930270
  18.2492010  78.8426320  56.5866240  18.5185110  80.3148100  56.8147570
  14.8616940  81.0095580  62.4060590  14.0476780  81.4392740  62.6686380
  15.2691140  81.6213990  61.7929640  16.9242380  79.0643270  49.3060860
  17.1991220  79.9722150  49.1780080  16.7353120  79.0005800  50.2422850
  13.3217990  72.0888120  50.6014490  13.7402870  71.9019100  49.7611150
  13.0154050  71.2367170  50.9117420  16.8207720  77.0012260  54.2990290
  16.4451320  76.2340190  53.8671580  16.0910840  77.3834960  54.7865220
  16.2107340  76.1483780  63.9329810  15.9793430  75.9196530  63.0327760
  16.4711890  77.0683330  63.8874700  14.6495410  71.3740210  66.7109510
  15.5265590  71.3823610  67.0943510  14.6616250  70.6371050  66.1001860
  16.0958680  75.2269750  57.5997530  16.6196160  74.7332400  56.9687700
  16.6818100  75.3620110  58.3445100  16.2748400  75.3109620  61.1217080
  15.3251110  75.2773160  61.2362070  16.4561410  76.2209730  60.8866850
   1.7767000  69.6150630  49.2718360   2.4995130  70.1559570  49.5899580
   2.0491520  69.3414050  48.3959900  15.5858650  74.4843100  53.5389940
  16.0817770  74.2513970  54.3238820  15.3874720  73.6454940  53.1227580
  17.0145810  73.1204050  56.0727620  16.9045090  72.9660090  57.0109890
  17.7753400  72.5924990  55.8303030  15.3611530  69.0598180  62.5310620
  15.9983750  69.6732320  62.8969810  15.5086420  69.0958840  61.5859850
  17.9036080  70.9511970  49.3133760  18.8285390  70.8193150  49.1052050
  17.8811870  71.0304790  50.2670210  17.9774570  71.7222630  51.9390470
  17.1826070  71.6567750  52.4683380  18.1817850  72.6573270  51.9275820
  14.9192990  85.7614180  55.9328860  15.5152060  85.4398750  55.2563280
  15.1771140  85.2886000  56.7242130   2.8255560  82.1932090  66.0819490
   2.7825190  81.8225000  66.9633950   2.9566570  83.1309660  66.2221310
   6.5261590  83.7491680  61.6829210   6.2852950  84.0166240  60.7959730
   7.4664230  83.9197410  61.7380070   8.7316010  70.2124370  65.4385720
   8.6704900  70.8046200  66.1881130   9.6716390  70.1050330  65.2935980
  11.3690570  69.8694430  65.0778010  11.9830980  70.1873720  64.4159090
  11.9140130  69.3843020  65.6973870  17.7865750  85.7686060  62.4839850
  17.2924030  86.1654930  61.7666980  17.1779040  85.1435270  62.8777130
   1.8911830  68.5488690  65.1917070   2.4394820  68.3676740  64.4283180
   1.9567140  67.7582800  65.7273380   2.6643590  85.1394340  63.2017270
   2.0703910  85.0079040  63.9407310   2.6567430  84.3032480  62.7359370
  12.1098610  68.4326570  61.4047300  11.2358450  68.7661680  61.2020230
  12.0009360  67.9599750  62.2299170  13.0170590  70.6397440  62.7889020
  12.6883950  69.8249200  62.4090750  13.9652890  70.5967250  62.6654710
  15.4705200  86.4109480  59.7626590  15.0108170  87.1625290  59.3884610
  14.8417660  85.6915950  59.7041390   5.9000920  84.7197720  58.9374720
   6.4165940  84.1085080  58.4122980   6.5498300  85.2226500  59.4285730
   8.6396420  85.6106210  59.7643700   8.9274230  85.3560510  58.8876710
   9.1519640  85.0583570  60.3549270   9.8573430  69.3496410  60.3440210
   9.0745220  69.8241910  60.6236970   9.5636360  68.4451240  60.2353390
  14.4094500  70.0519510  58.3889300  14.8502590  69.9964610  57.5410900
  14.1402090  70.9677520  58.4599480  16.2733070  69.6834750  56.3998120
  16.2121470  68.7395970  56.2529140  17.0525100  69.7914840  56.9451580
   7.7427650  71.7683160  55.8556240   6.9302160  71.3940050  55.5152120
   8.2469290  71.0128240  56.1577430  12.2452630  68.4325610  57.0939310
  12.8482000  69.0045820  57.5687830  11.5045620  68.9965050  56.8713210
  15.3887230  68.8347170  52.3679590  15.5837860  69.7330620  52.6347020
  14.6017100  68.6034250  52.8612540   2.1848520  84.5160340  52.8072210
   1.6596140  84.8968370  52.1034170   2.1093100  85.1411110  53.5281920
   3.5738990  70.1807940  51.4055900   4.1031750  69.3937740  51.2763850
   4.2067310  70.8599130  51.6391430   5.7676830  69.9183080  54.4601290
   5.1379570  69.2170390  54.6271420   5.2281970  70.6787210  54.2434450
   8.7068780  86.5322310  67.1311900   9.6336090  86.2966580  67.1747860
   8.6919210  87.3594310  66.6497930  16.9413840  86.0747880  54.1286150
  17.1166030  85.3885620  53.4847070  16.2435410  86.5994930  53.7362820
   5.8932390  69.1967060  66.8953780   5.6116660  69.7000660  66.1314600
   6.2752090  68.3988810  66.5295910   4.7841490  86.4642720  51.6821460
   5.5160310  86.1802000  51.1345350   5.0435160  86.2256000  52.5720840
   3.9456280  82.5807450  51.6867790   3.3165160  83.0492550  52.2353620
   4.0604110  81.7356670  52.1213980  12.4947850  68.6120640  67.4734250
  12.3813300  68.9315250  68.3685770  13.3117590  69.0133150  67.1771530
  15.2746340  85.7592170  66.9552940  16.0671660  85.2641400  66.7478900
  15.5679490  86.4382310  67.5628550  11.4006000  76.6313110  37.8368990
  11.3200050  75.7167720  37.5660700  10.9870420  77.1280180  37.1308700
   9.5324040  78.4092130  39.7178260   8.7566140  77.9292570  40.0076830
  10.1836970  77.7297780  39.5434420   3.5489870  78.7211940  40.5954020
   2.7174750  78.4660650  40.9950530   4.1570850  78.7922710  41.3311940
  13.5531470  82.8152320  38.4977390  13.0913000  82.0439560  38.8264560
  14.3657020  82.8418390  39.0029840   3.5291130  82.7552030  40.7912040
   3.8319170  81.8649770  40.6122260   4.2734720  83.3122250  40.5634290
   9.7794780  85.1010330  38.1181380   9.1606220  85.5567830  37.5475820
  10.6346560  85.2561790  37.7171080   8.9733030  81.0849320  39.7248420
   8.9041310  80.1439260  39.5637550   9.7352890  81.1750730  40.2970990
  10.0038200  73.8919700  39.9517350  10.3803020  73.0191580  39.8391020
   9.9057710  74.2278400  39.0607790   4.1343210  72.2645330  35.4134790
   4.2409960  73.1649060  35.7203550   3.2235570  72.2163300  35.1229440
  13.7862320  71.3870140  36.8845690  14.6071940  70.8966710  36.9271170
  13.8196400  71.9767800  37.6377530   5.9750940  75.2331700  39.7459970
   6.4829160  75.7312670  40.3864990   6.5064180  74.4566900  39.5699330
  18.0761870  73.4036890  43.4489320  17.3714040  73.7918600  42.9304430
  18.3419790  74.0987180  44.0510250   4.2587040  69.8730260  44.0123390
   4.2605480  70.3902650  43.2069290   3.4291350  69.3960440  43.9893320
  10.6458130  79.9849570  35.5113290  10.0275400  80.4499020  34.9476010
  11.1581380  80.6777050  35.9282800   5.5089890  79.5125440  42.1896890
   5.1759270  80.1394360  42.8317960   5.6856570  80.0387320  41.4098560
  14.0223800  73.3270520  39.6573230  13.3179370  73.6155410  40.2376340
  14.3835960  74.1370630  39.2972790   3.9402370  71.5840220  42.0193840
   4.2819180  72.4282270  41.7247710   3.0018180  71.7323960  42.1359180
   4.7208990  81.4806240  44.0046070   5.3382990  82.1557320  43.7230520
   3.8602110  81.8894220  43.9133570  15.6386580  82.9445650  41.9200710
  14.9550100  83.6144760  41.9117380  16.1780870  83.1426300  41.1545570
  17.0910720  72.7725310  40.0482440  16.1435630  72.8064290  40.1797870
  17.4160710  73.5864260  40.4331800   7.6230260  69.0722490  38.3438430
   7.9305240  68.5169380  37.6273930   6.6930960  69.2066950  38.1611420
  13.1745320  84.7889780  40.6345890  13.1872480  84.3852070  39.7668150
  12.6220540  85.5637070  40.5307320  14.4690740  81.5106000  35.7236060
  14.3587070  80.5680330  35.8485480  14.4658990  81.8721640  36.6098820
  12.5730760  79.6919620  41.9628500  12.9899550  79.4779730  41.1281960
  13.2970580  79.9492410  42.5337120  10.0111020  77.1371320  35.0798550
   9.0840300  77.0708700  35.3087020  10.1635840  78.0751450  34.9653790
   9.9980100  73.4088320  32.0765710   9.0583770  73.5702280  32.1618170
  10.3163360  74.1274000  31.5301700  16.5192860  78.0906840  42.0544740
  15.6911490  78.1599930  41.5794870  17.1143340  78.6761150  41.5860570
  14.0408310  78.6991620  35.5833800  13.4220730  78.3611170  34.9360100
  14.0232760  78.0551380  36.2912990  13.4834870  74.8776160  42.9999610
  13.0706050  75.7029870  43.2539600  12.7510820  74.2921200  42.8075970
   5.6167660  77.6636060  37.8618280   5.2124660  76.9513310  37.3664180
   5.7030780  77.3189300  38.7506320   6.0849360  81.3503620  40.0257490
   5.7877650  80.7449090  39.3465270   7.0349180  81.3880930  39.9146850
   4.3296280  74.4379270  41.6417320   4.8810870  74.5474610  40.8670570
   4.8439790  74.8116870  42.3572550  14.1734970  84.9235490  43.6880590
  13.6965530  85.7307680  43.4953200  13.4896760  84.2713820  43.8406800
   5.1767790  81.0885310  46.6765290   4.2796320  81.3125280  46.9238690
   5.2020660  81.2120250  45.7276690  12.2173010  77.9378430  32.5906550
  12.6566290  77.1000860  32.4444370  12.9301430  78.5707830  32.6770690
   4.0039010  77.9598630  45.2522660   3.8646780  78.8321430  45.6210060
   3.1220370  77.6171440  45.1070600  10.3268390  82.8774500  36.5587790
  10.7664300  83.6198830  36.1443180  10.2655280  83.1201070  37.4826750
   5.8019360  83.9020330  47.4607810   5.7734790  84.3063280  46.5936240
   5.6384330  82.9730690  47.2979410  15.7990150  69.1921240  30.9047590
  15.4862810  69.2848070  31.8046660  16.5602620  69.7702270  30.8545020
   2.3172290  76.5581040  35.3624930   2.1969890  77.2843130  34.7506200
   2.0073180  75.7883950  34.8852840  17.7534180  84.6847430  48.7571980
  18.2293900  85.1630320  49.4361060  18.3741340  84.6164920  48.0317480
  17.1567430  81.8760280  45.9171990  17.2830490  81.6372160  44.9989170
  17.1988810  81.0444820  46.3894070  11.0184170  85.5788280  44.4866800
  11.5328840  85.4896290  45.2889230  10.1753250  85.9247980  44.7794710
  12.9938570  85.8643620  33.9150800  12.8339710  85.5746560  34.8132630
  12.8285280  85.0883750  33.3796030   5.4726950  85.6442150  35.6922420
   5.2969430  84.7277690  35.4790220   4.6182690  86.0029440  35.9320220
  12.6964700  83.3731180  32.4748800  12.0029860  83.3708470  31.8151080
  13.4387560  82.9490500  32.0442970  12.2614630  84.9993890  36.5497290
  12.7171580  84.2183270  36.8635910  12.6007150  85.7100710  37.0938470
  17.0091440  73.9292740  46.8821730  16.3935710  74.4372410  46.3537190
  16.6887860  73.0291070  46.8247670   4.7835950  69.9016110  38.7448600
   4.3404100  70.6825650  38.4133120   5.3420940  70.2246000  39.4519540
   9.0705760  72.7684630  44.3483920   8.6085130  72.9767650  45.1603860
   8.6683870  71.9543980  44.0454590  14.0710270  73.9893580  45.4780580
  13.2203860  73.6899330  45.7989650  13.9112060  74.2335590  44.5664400
  11.1659980  75.4895330  47.5779370  11.4913390  74.6559080  47.2381600
  11.9540310  76.0123850  47.7257700   7.8994770  69.5226810  33.6254430
   7.2748950  69.5186680  34.3507740   7.8124890  68.6557770  33.2290400
   6.8211850  70.4463440  40.6038200   7.1184180  71.3526270  40.5230220
   7.3697410  69.9582220  39.9897770   4.5750170  75.0249680  36.4729850
   4.3491090  74.8086850  37.3776470   3.7942700  75.4578140  36.1275820
  11.8047930  75.0313050  35.0720500  11.2056820  75.7548850  34.8884120
  12.3527540  74.9689830  34.2896950   7.0149380  75.9235260  47.1390120
   6.9192980  74.9829990  46.9890520   7.8581360  76.1450330  46.7438190
  10.4112800  73.6676590  37.1023780  10.8042370  73.9848790  36.2892470
  10.7729650  72.7888470  37.2168300   8.7204970  72.4183900  48.3620640
   8.0303290  72.2256100  48.9966730   9.4637270  72.7018540  48.8944940
  10.9967940  76.2582340  41.1974560  10.2649060  76.7669150  41.5464660
  10.5992280  75.4412320  40.8963340   7.4345330  72.9336540  39.6027050
   7.4381390  72.4926490  38.7531590   8.3296450  73.2553870  39.7098870
   3.2847710  72.8163030  38.5621260   2.9447760  73.2938260  39.3188310
   2.5225030  72.3628150  38.2022360   7.4965480  73.9348620  32.5933810
   7.6178300  73.8935100  33.5419630   7.1113990  74.7972770  32.4380540
  11.4593850  71.7116020  40.6097500  11.4766590  72.1624670  41.4539350
  11.2109430  70.8121660  40.8230940   6.5086980  76.2449760  31.9917110
   5.9403880  75.7968010  31.3653020   7.2175980  76.6042540  31.4582260
  14.8864600  69.1248200  46.4483880  15.2110370  68.3937860  46.9741860
  14.9221110  68.8061840  45.5464870   7.7353300  76.9938320  41.3492460
   8.1023430  76.5196890  42.0953800   7.5458360  77.8679890  41.6900800
   5.5252670  76.0346960  43.6676670   5.2209740  76.9138940  43.8927030
   6.4799130  76.0946750  43.7034110   4.0534460  80.2407950  34.2643520
   3.2796720  79.7005570  34.1042240   4.7829090  79.7214560  33.9261280
  14.8122440  79.2373310  40.0569910  15.5321560  79.7328600  39.6666020
  14.6104260  78.5591200  39.4123780  10.2732380  70.6311270  34.1999300
   9.4596990  70.1324440  34.1244610  10.0794330  71.4709520  33.7835650
  10.1941240  79.3082370  45.9438910  10.1278550  78.3878040  45.6896500
   9.5646380  79.4057810  46.6583550  12.9880770  75.0030920  32.4961460
  13.8760390  75.3148150  32.3212800  12.9585860  74.1303170  32.1042040
   4.0971860  79.9088330  37.9022330   4.6150530  79.1056590  37.8479220
   3.6455880  79.8467470  38.7439160   8.9841360  81.1754610  33.1749630
   9.3257060  81.9196840  32.6792950   8.1554070  81.4885730  33.5374460
   4.7829520  77.3333940  47.6987580   4.4829660  77.4791120  46.8015400
   5.5540760  76.7739230  47.6060970  10.1257970  82.1302940  45.6942710
  10.1402510  81.1983900  45.4761620   9.4183070  82.2162700  46.3332480
  15.2595040  76.3142760  31.9641320  15.1758760  76.7456980  31.1137760
  15.9789230  76.7741110  32.3968140  16.3369180  78.7710280  45.0411290
  15.6117370  79.3639060  44.8440680  16.8644640  78.7633820  44.2424660
  16.2882290  83.1685020  34.6923450  15.6458450  82.5140640  34.9667170
  15.9012950  83.5740110  33.9164120  11.8668770  80.4970450  38.5395140
  12.2192590  79.8998580  37.8796510  10.9831100  80.1714680  38.7103390
   7.9532050  81.2568140  35.9465550   8.6403180  81.8037350  36.3273140
   7.1664470  81.8008870  35.9815160   7.2559260  78.2614170  35.5590910
   7.7122040  79.0719420  35.7851100   6.9047470  77.9437310  36.3909400
   9.5591870  83.7720510  42.7883210  10.2034090  83.9779890  43.4656630
   9.9221310  83.0108910  42.3354060   3.1571040  68.6051820  36.0313430
   3.0285670  68.5969720  36.9798350   2.3333060  68.9434910  35.6804440
  10.8323950  81.7752860  41.5060660  11.4746180  81.0746020  41.6192830
  11.3573300  82.5551300  41.3257550  14.6779670  82.0601480  31.2299800
  14.4517250  81.3431920  31.8224440  14.2875870  81.8113920  30.3921550
  12.6061570  82.5747760  44.7096720  12.9417810  83.1614450  45.3874640
  11.6861910  82.4440470  44.9394510  14.2595920  79.9773420  32.8913960
  13.9717620  80.4386110  33.6791840  15.0548090  79.5171190  33.1598180
   8.4350150  82.6239090  47.8784780   8.1147020  81.9048330  48.4230470
   7.7608510  83.2994160  47.9520840   6.4764320  83.4699540  32.8217930
   6.4674420  84.2029230  32.2062440   5.5562680  83.2231120  32.9144890
  11.6503750  72.8565250  43.2421580  12.0184570  72.0360460  43.5701150
  10.7901950  72.9167140  43.6577230  15.0165780  71.8122190  34.0509140
  14.3878940  71.9167860  33.3367370  14.5217700  72.0318970  34.8403020
   9.4623920  83.5327780  31.4843120   9.5635900  83.3291770  30.5545100
   8.5625660  83.2786060  31.6890900   6.9849810  74.0908140  35.4667020
   6.2765960  74.5594480  35.9080630   7.2694290  73.4330150  36.1012210
   8.6105740  75.5104840  43.4659550   9.1090990  75.9850660  44.1311400
   8.7528690  74.5868360  43.6729580  11.0165240  70.8158800  36.9062810
  10.8933020  70.8344930  35.9572320  11.9649800  70.8637740  37.0261210
   8.1042030  86.0514100  36.1790790   8.3583530  86.0135490  35.2570160
   7.1554510  85.9247430  36.1719040   5.1884830  72.3993220  32.8417730
   6.0375360  72.8363370  32.7757920   4.8216100  72.7113480  33.6689790
  15.8172600  71.7272800  44.3087940  15.3146200  72.4678200  44.6481750
  16.6329260  72.1156800  43.9924730  14.1094610  76.9705980  37.7549300
  13.1684750  76.9856210  37.9296990  14.4238680  76.1841940  38.2009600
   4.0876250  78.6525580  31.3153260   4.8539520  78.5406940  31.8778690
   4.1650940  77.9563550  30.6630030   2.7823010  76.0850650  31.9986150
   2.8626600  75.1378160  32.1103550   3.6742760  76.4157530  32.1046810
  16.1120190  84.1414830  39.4303560  16.2367610  84.9646000  39.9027370
  16.9785750  83.9305560  39.0827710   3.5837720  86.2346040  39.1020690
   4.3200200  85.6861500  39.3729260   3.9678640  87.1002050  38.9626680
   2.5896000  85.4192110  48.2906270   3.3908730  85.7404160  48.7041670
   2.0747820  85.0587690  49.0126180   6.6940030  85.4076350  30.9246260
   7.4868640  85.6965180  30.4728050   6.1744380  84.9768520  30.2458740
  11.4260630  81.5271980  48.2381680  10.8198790  81.5503580  47.4977430
  11.1214740  80.7955020  48.7748930  12.8561000  85.2552270  46.8491090
  13.8082750  85.1710290  46.7991330  12.7089220  85.9193980  47.5224880
  15.7470200  84.6346480  32.3483000  15.4611710  84.2211620  31.5337180
  15.5489750  85.5634190  32.2283520   7.2117430  80.6279760  30.7888610
   7.1068070  80.0132110  31.5149990   7.0441650  80.1045650  30.0051620
   7.3631750  79.3136560  46.7677840   6.5977420  79.8821560  46.6832510
   7.5447710  79.0212770  45.8746070  10.4520160  79.6899790  31.3930600
   9.9030260  80.1369090  32.0373340  11.0739420  79.1849040  31.9168270
  14.5055100  81.0441890  47.3252860  15.2464570  81.3817650  46.8220320
  13.7427780  81.2133950  46.7722630   2.3416890  76.0495160  48.1292390
   2.3822230  75.7509030  49.0377620   3.1962390  76.4502770  47.9699910
   6.1195280  78.6490710  33.2895900   6.5411700  78.4830580  34.1327290
   6.2446120  77.8390940  32.7951040   4.2822700  74.6287260  46.0966880
   3.7519160  74.1378210  45.4690220   4.9510770  75.0571460  45.5624810
   8.6322920  77.6728320  30.5373000   9.1528580  76.9577340  30.1714150
   9.2791320  78.3114190  30.8373510  13.1800760  79.0956720  45.8608070
  13.5941780  79.2501800  46.7098490  12.2451760  79.2211940  46.0233850
  13.6522930  76.4352880  47.8647220  14.2343700  75.6805200  47.7767700
  13.8284700  76.9660320  47.0878700   4.7695000  71.5949630  46.1764170
   4.6751870  70.9770380  45.4515040   4.1892390  72.3215920  45.9494080
   7.5356440  70.1522870  43.2091560   7.0873740  70.1747130  42.3637110
   6.9021640  69.7541890  43.8061860   7.9415990  79.0477200  43.8304000
   8.3604100  79.8909930  43.6580240   7.0224620  79.1849240  43.6010780
  10.2779890  76.7793380  45.2141840  10.3976100  76.1834520  45.9536680
  11.1373890  76.8163070  44.7943140  12.6167790  77.3330570  43.7904350
  12.0903010  77.8573190  43.1869490  12.9599130  77.9657960  44.4214080
   5.0154180  74.7223940  30.2354060   4.8143240  73.8591300  30.5967400
   4.8446230  74.6357300  29.2975660   5.7923410  85.3530210  44.9461730
   5.2544500  86.0776270  44.6270430   6.0457370  84.8760550  44.1559070
   7.0448660  73.3214730  46.4717660   7.6348350  73.0130580  47.1595480
   6.2268900  72.8494480  46.6277560  11.8642090  72.9380540  46.7050680
  11.1757610  72.2762080  46.6400670  12.5848110  72.4918810  47.1499140
  12.4942490  69.5332170  32.7640940  12.7744780  68.6900070  33.1200360
  11.7208220  69.7655280  33.2779690   3.8136980  71.8224560  30.2231940
   4.1162880  71.8291990  29.3151090   4.5531570  71.4722420  30.7199600
   8.6485620  86.5881420  45.2048380   8.5744320  87.4916560  45.5120750
   7.7464460  86.2693320  45.1770450   7.0321910  70.7659180  31.2088140
   6.6843910  70.0883170  30.6290590   7.2334680  70.3048690  32.0231530
   9.1970950  85.7539930  32.8274740  10.0921740  86.0924900  32.8493500
   9.2288580  85.0319340  32.1999020   2.8367110  81.1266980  31.0561740
   3.2741980  81.6696650  31.7119320   3.3214840  80.3013930  31.0658080
   4.6474830  82.2465020  36.1683970   4.3470370  82.1229990  37.0687880
   4.5412320  81.3873610  35.7599700  16.1765300  84.2843600  45.5340940
  15.5767290  84.3436160  44.7904860  16.3059200  83.3448580  45.6637790
  17.4166750  82.0261420  30.8710650  16.5859710  82.0938070  31.3417880
  17.5938580  82.9165540  30.5677510  16.8723210  78.7708900  33.3744850
  17.6342120  79.3405550  33.4804540  16.8877580  78.2036100  34.1453160
  17.8783180  79.6259000  38.2186780  18.2492010  78.8426320  37.8122750
  18.5185110  80.3148100  38.0404080  14.8616940  81.0095580  43.6317100
  14.0476780  81.4392740  43.8942890  15.2691140  81.6213990  43.0186150
  16.9242380  79.0643270  30.5317370  17.1991220  79.9722150  30.4036590
  16.7353120  79.0005800  31.4679360  13.3217990  72.0888120  31.8271000
  13.7402870  71.9019100  30.9867660  13.0154050  71.2367170  32.1373930
  16.8207720  77.0012260  35.5246800  16.4451320  76.2340190  35.0928090
  16.0910840  77.3834960  36.0121730  16.2107340  76.1483780  45.1586320
  15.9793430  75.9196530  44.2584270  16.4711890  77.0683330  45.1131210
  14.6495410  71.3740210  47.9366020  15.5265590  71.3823610  48.3200020
  14.6616250  70.6371050  47.3258370  16.0958680  75.2269750  38.8254040
  16.6196160  74.7332400  38.1944210  16.6818100  75.3620110  39.5701610
  16.2748400  75.3109620  42.3473590  15.3251110  75.2773160  42.4618580
  16.4561410  76.2209730  42.1123360   1.7767000  69.6150630  30.4974870
   2.4995130  70.1559570  30.8156090   2.0491520  69.3414050  29.6216410
  15.5858650  74.4843100  34.7646450  16.0817770  74.2513970  35.5495330
  15.3874720  73.6454940  34.3484090  17.0145810  73.1204050  37.2984130
  16.9045090  72.9660090  38.2366400  17.7753400  72.5924990  37.0559540
  15.3611530  69.0598180  43.7567130  15.9983750  69.6732320  44.1226320
  15.5086420  69.0958840  42.8116360  17.9036080  70.9511970  30.5390270
  18.8285390  70.8193150  30.3308560  17.8811870  71.0304790  31.4926720
  17.9774570  71.7222630  33.1646980  17.1826070  71.6567750  33.6939890
  18.1817850  72.6573270  33.1532330  14.9192990  85.7614180  37.1585370
  15.5152060  85.4398750  36.4819790  15.1771140  85.2886000  37.9498640
   2.8255560  82.1932090  47.3076000   2.7825190  81.8225000  48.1890460
   2.9566570  83.1309660  47.4477820   6.5261590  83.7491680  42.9085720
   6.2852950  84.0166240  42.0216240   7.4664230  83.9197410  42.9636580
   8.7316010  70.2124370  46.6642230   8.6704900  70.8046200  47.4137640
   9.6716390  70.1050330  46.5192490  11.3690570  69.8694430  46.3034520
  11.9830980  70.1873720  45.6415600  11.9140130  69.3843020  46.9230380
  17.7865750  85.7686060  43.7096360  17.2924030  86.1654930  42.9923490
  17.1779040  85.1435270  44.1033640   1.8911830  68.5488690  46.4173580
   2.4394820  68.3676740  45.6539690   1.9567140  67.7582800  46.9529890
   2.6643590  85.1394340  44.4273780   2.0703910  85.0079040  45.1663820
   2.6567430  84.3032480  43.9615880  12.1098610  68.4326570  42.6303810
  11.2358450  68.7661680  42.4276740  12.0009360  67.9599750  43.4555680
  13.0170590  70.6397440  44.0145530  12.6883950  69.8249200  43.6347260
  13.9652890  70.5967250  43.8911220  15.4705200  86.4109480  40.9883100
  15.0108170  87.1625290  40.6141120  14.8417660  85.6915950  40.9297900
   5.9000920  84.7197720  40.1631230   6.4165940  84.1085080  39.6379490
   6.5498300  85.2226500  40.6542240   8.6396420  85.6106210  40.9900210
   8.9274230  85.3560510  40.1133220   9.1519640  85.0583570  41.5805780
   9.8573430  69.3496410  41.5696720   9.0745220  69.8241910  41.8493480
   9.5636360  68.4451240  41.4609900  14.4094500  70.0519510  39.6145810
  14.8502590  69.9964610  38.7667410  14.1402090  70.9677520  39.6855990
  16.2733070  69.6834750  37.6254630  16.2121470  68.7395970  37.4785650
  17.0525100  69.7914840  38.1708090   7.7427650  71.7683160  37.0812750
   6.9302160  71.3940050  36.7408630   8.2469290  71.0128240  37.3833940
  12.2452630  68.4325610  38.3195820  12.8482000  69.0045820  38.7944340
  11.5045620  68.9965050  38.0969720  15.3887230  68.8347170  33.5936100
  15.5837860  69.7330620  33.8603530  14.6017100  68.6034250  34.0869050
   2.1848520  84.5160340  34.0328720   1.6596140  84.8968370  33.3290680
   2.1093100  85.1411110  34.7538430   3.5738990  70.1807940  32.6312410
   4.1031750  69.3937740  32.5020360   4.2067310  70.8599130  32.8647940
   5.7676830  69.9183080  35.6857800   5.1379570  69.2170390  35.8527930
   5.2281970  70.6787210  35.4690960   8.7068780  86.5322310  48.3568410
   9.6336090  86.2966580  48.4004370   8.6919210  87.3594310  47.8754440
  16.9413840  86.0747880  35.3542660  17.1166030  85.3885620  34.7103580
  16.2435410  86.5994930  34.9619330   5.8932390  69.1967060  48.1210290
   5.6116660  69.7000660  47.3571110   6.2752090  68.3988810  47.7552420
   4.7841490  86.4642720  32.9077970   5.5160310  86.1802000  32.3601860
   5.0435160  86.2256000  33.7977350   3.9456280  82.5807450  32.9124300
   3.3165160  83.0492550  33.4610130   4.0604110  81.7356670  33.3470490
  12.4947850  68.6120640  48.6990760  12.3813300  68.9315250  49.5942280
  13.3117590  69.0133150  48.4028040  15.2746340  85.7592170  48.1809450
  16.0671660  85.2641400  47.9735410  15.5679490  86.4382310  48.7885060
  11.4006000  76.6313110  19.0625500  11.3200050  75.7167720  18.7917210
  10.9870420  77.1280180  18.3565210   9.5324040  78.4092130  20.9434770
   8.7566140  77.9292570  21.2333340  10.1836970  77.7297780  20.7690930
   3.5489870  78.7211940  21.8210530   2.7174750  78.4660650  22.2207040
   4.1570850  78.7922710  22.5568450  13.5531470  82.8152320  19.7233900
  13.0913000  82.0439560  20.0521070  14.3657020  82.8418390  20.2286350
   3.5291130  82.7552030  22.0168550   3.8319170  81.8649770  21.8378770
   4.2734720  83.3122250  21.7890800   9.7794780  85.1010330  19.3437890
   9.1606220  85.5567830  18.7732330  10.6346560  85.2561790  18.9427590
   8.9733030  81.0849320  20.9504930   8.9041310  80.1439260  20.7894060
   9.7352890  81.1750730  21.5227500  10.0038200  73.8919700  21.1773860
  10.3803020  73.0191580  21.0647530   9.9057710  74.2278400  20.2864300
   4.1343210  72.2645330  16.6391300   4.2409960  73.1649060  16.9460060
   3.2235570  72.2163300  16.3485950  13.7862320  71.3870140  18.1102200
  14.6071940  70.8966710  18.1527680  13.8196400  71.9767800  18.8634040
   5.9750940  75.2331700  20.9716480   6.4829160  75.7312670  21.6121500
   6.5064180  74.4566900  20.7955840  18.0761870  73.4036890  24.6745830
  17.3714040  73.7918600  24.1560940  18.3419790  74.0987180  25.2766760
   4.2587040  69.8730260  25.2379900   4.2605480  70.3902650  24.4325800
   3.4291350  69.3960440  25.2149830  10.6458130  79.9849570  16.7369800
  10.0275400  80.4499020  16.1732520  11.1581380  80.6777050  17.1539310
   5.5089890  79.5125440  23.4153400   5.1759270  80.1394360  24.0574470
   5.6856570  80.0387320  22.6355070  14.0223800  73.3270520  20.8829740
  13.3179370  73.6155410  21.4632850  14.3835960  74.1370630  20.5229300
   3.9402370  71.5840220  23.2450350   4.2819180  72.4282270  22.9504220
   3.0018180  71.7323960  23.3615690   4.7208990  81.4806240  25.2302580
   5.3382990  82.1557320  24.9487030   3.8602110  81.8894220  25.1390080
  15.6386580  82.9445650  23.1457220  14.9550100  83.6144760  23.1373890
  16.1780870  83.1426300  22.3802080  17.0910720  72.7725310  21.2738950
  16.1435630  72.8064290  21.4054380  17.4160710  73.5864260  21.6588310
   7.6230260  69.0722490  19.5694940   7.9305240  68.5169380  18.8530440
   6.6930960  69.2066950  19.3867930  13.1745320  84.7889780  21.8602400
  13.1872480  84.3852070  20.9924660  12.6220540  85.5637070  21.7563830
  14.4690740  81.5106000  16.9492570  14.3587070  80.5680330  17.0741990
  14.4658990  81.8721640  17.8355330  12.5730760  79.6919620  23.1885010
  12.9899550  79.4779730  22.3538470  13.2970580  79.9492410  23.7593630
  10.0111020  77.1371320  16.3055060   9.0840300  77.0708700  16.5343530
  10.1635840  78.0751450  16.1910300   9.9980100  73.4088320  13.3022220
   9.0583770  73.5702280  13.3874680  10.3163360  74.1274000  12.7558210
  16.5192860  78.0906840  23.2801250  15.6911490  78.1599930  22.8051380
  17.1143340  78.6761150  22.8117080  14.0408310  78.6991620  16.8090310
  13.4220730  78.3611170  16.1616610  14.0232760  78.0551380  17.5169500
  13.4834870  74.8776160  24.2256120  13.0706050  75.7029870  24.4796110
  12.7510820  74.2921200  24.0332480   5.6167660  77.6636060  19.0874790
   5.2124660  76.9513310  18.5920690   5.7030780  77.3189300  19.9762830
   6.0849360  81.3503620  21.2514000   5.7877650  80.7449090  20.5721780
   7.0349180  81.3880930  21.1403360   4.3296280  74.4379270  22.8673830
   4.8810870  74.5474610  22.0927080   4.8439790  74.8116870  23.5829060
  14.1734970  84.9235490  24.9137100  13.6965530  85.7307680  24.7209710
  13.4896760  84.2713820  25.0663310   5.1767790  81.0885310  27.9021800
   4.2796320  81.3125280  28.1495200   5.2020660  81.2120250  26.9533200
  12.2173010  77.9378430  13.8163060  12.6566290  77.1000860  13.6700880
  12.9301430  78.5707830  13.9027200   4.0039010  77.9598630  26.4779170
   3.8646780  78.8321430  26.8466570   3.1220370  77.6171440  26.3327110
  10.3268390  82.8774500  17.7844300  10.7664300  83.6198830  17.3699690
  10.2655280  83.1201070  18.7083260   5.8019360  83.9020330  28.6864320
   5.7734790  84.3063280  27.8192750   5.6384330  82.9730690  28.5235920
  15.7990150  69.1921240  12.1304100  15.4862810  69.2848070  13.0303170
  16.5602620  69.7702270  12.0801530   2.3172290  76.5581040  16.5881440
   2.1969890  77.2843130  15.9762710   2.0073180  75.7883950  16.1109350
  17.7534180  84.6847430  29.9828490  18.2293900  85.1630320  30.6617570
  18.3741340  84.6164920  29.2573990  17.1567430  81.8760280  27.1428500
  17.2830490  81.6372160  26.2245680  17.1988810  81.0444820  27.6150580
  11.0184170  85.5788280  25.7123310  11.5328840  85.4896290  26.5145740
  10.1753250  85.9247980  26.0051220  12.9938570  85.8643620  15.1407310
  12.8339710  85.5746560  16.0389140  12.8285280  85.0883750  14.6052540
   5.4726950  85.6442150  16.9178930   5.2969430  84.7277690  16.7046730
   4.6182690  86.0029440  17.1576730  12.6964700  83.3731180  13.7005310
  12.0029860  83.3708470  13.0407590  13.4387560  82.9490500  13.2699480
  12.2614630  84.9993890  17.7753800  12.7171580  84.2183270  18.0892420
  12.6007150  85.7100710  18.3194980  17.0091440  73.9292740  28.1078240
  16.3935710  74.4372410  27.5793700  16.6887860  73.0291070  28.0504180
   4.7835950  69.9016110  19.9705110   4.3404100  70.6825650  19.6389630
   5.3420940  70.2246000  20.6776050   9.0705760  72.7684630  25.5740430
   8.6085130  72.9767650  26.3860370   8.6683870  71.9543980  25.2711100
  14.0710270  73.9893580  26.7037090  13.2203860  73.6899330  27.0246160
  13.9112060  74.2335590  25.7920910  11.1659980  75.4895330  28.8035880
  11.4913390  74.6559080  28.4638110  11.9540310  76.0123850  28.9514210
   7.8994770  69.5226810  14.8510940   7.2748950  69.5186680  15.5764250
   7.8124890  68.6557770  14.4546910   6.8211850  70.4463440  21.8294710
   7.1184180  71.3526270  21.7486730   7.3697410  69.9582220  21.2154280
   4.5750170  75.0249680  17.6986360   4.3491090  74.8086850  18.6032980
   3.7942700  75.4578140  17.3532330  11.8047930  75.0313050  16.2977010
  11.2056820  75.7548850  16.1140630  12.3527540  74.9689830  15.5153460
   7.0149380  75.9235260  28.3646630   6.9192980  74.9829990  28.2147030
   7.8581360  76.1450330  27.9694700  10.4112800  73.6676590  18.3280290
  10.8042370  73.9848790  17.5148980  10.7729650  72.7888470  18.4424810
   8.7204970  72.4183900  29.5877150   8.0303290  72.2256100  30.2223240
   9.4637270  72.7018540  30.1201450  10.9967940  76.2582340  22.4231070
  10.2649060  76.7669150  22.7721170  10.5992280  75.4412320  22.1219850
   7.4345330  72.9336540  20.8283560   7.4381390  72.4926490  19.9788100
   8.3296450  73.2553870  20.9355380   3.2847710  72.8163030  19.7877770
   2.9447760  73.2938260  20.5444820   2.5225030  72.3628150  19.4278870
   7.4965480  73.9348620  13.8190320   7.6178300  73.8935100  14.7676140
   7.1113990  74.7972770  13.6637050  11.4593850  71.7116020  21.8354010
  11.4766590  72.1624670  22.6795860  11.2109430  70.8121660  22.0487450
   6.5086980  76.2449760  13.2173620   5.9403880  75.7968010  12.5909530
   7.2175980  76.6042540  12.6838770  14.8864600  69.1248200  27.6740390
  15.2110370  68.3937860  28.1998370  14.9221110  68.8061840  26.7721380
   7.7353300  76.9938320  22.5748970   8.1023430  76.5196890  23.3210310
   7.5458360  77.8679890  22.9157310   5.5252670  76.0346960  24.8933180
   5.2209740  76.9138940  25.1183540   6.4799130  76.0946750  24.9290620
   4.0534460  80.2407950  15.4900030   3.2796720  79.7005570  15.3298750
   4.7829090  79.7214560  15.1517790  14.8122440  79.2373310  21.2826420
  15.5321560  79.7328600  20.8922530  14.6104260  78.5591200  20.6380290
  10.2732380  70.6311270  15.4255810   9.4596990  70.1324440  15.3501120
  10.0794330  71.4709520  15.0092160  10.1941240  79.3082370  27.1695420
  10.1278550  78.3878040  26.9153010   9.5646380  79.4057810  27.8840060
  12.9880770  75.0030920  13.7217970  13.8760390  75.3148150  13.5469310
  12.9585860  74.1303170  13.3298550   4.0971860  79.9088330  19.1278840
   4.6150530  79.1056590  19.0735730   3.6455880  79.8467470  19.9695670
   8.9841360  81.1754610  14.4006140   9.3257060  81.9196840  13.9049460
   8.1554070  81.4885730  14.7630970   4.7829520  77.3333940  28.9244090
   4.4829660  77.4791120  28.0271910   5.5540760  76.7739230  28.8317480
  10.1257970  82.1302940  26.9199220  10.1402510  81.1983900  26.7018130
   9.4183070  82.2162700  27.5588990  15.2595040  76.3142760  13.1897830
  15.1758760  76.7456980  12.3394270  15.9789230  76.7741110  13.6224650
  16.3369180  78.7710280  26.2667800  15.6117370  79.3639060  26.0697190
  16.8644640  78.7633820  25.4681170  16.2882290  83.1685020  15.9179960
  15.6458450  82.5140640  16.1923680  15.9012950  83.5740110  15.1420630
  11.8668770  80.4970450  19.7651650  12.2192590  79.8998580  19.1053020
  10.9831100  80.1714680  19.9359900   7.9532050  81.2568140  17.1722060
   8.6403180  81.8037350  17.5529650   7.1664470  81.8008870  17.2071670
   7.2559260  78.2614170  16.7847420   7.7122040  79.0719420  17.0107610
   6.9047470  77.9437310  17.6165910   9.5591870  83.7720510  24.0139720
  10.2034090  83.9779890  24.6913140   9.9221310  83.0108910  23.5610570
   3.1571040  68.6051820  17.2569940   3.0285670  68.5969720  18.2054860
   2.3333060  68.9434910  16.9060950  10.8323950  81.7752860  22.7317170
  11.4746180  81.0746020  22.8449340  11.3573300  82.5551300  22.5514060
  14.6779670  82.0601480  12.4556310  14.4517250  81.3431920  13.0480950
  14.2875870  81.8113920  11.6178060  12.6061570  82.5747760  25.9353230
  12.9417810  83.1614450  26.6131150  11.6861910  82.4440470  26.1651020
  14.2595920  79.9773420  14.1170470  13.9717620  80.4386110  14.9048350
  15.0548090  79.5171190  14.3854690   8.4350150  82.6239090  29.1041290
   8.1147020  81.9048330  29.6486980   7.7608510  83.2994160  29.1777350
   6.4764320  83.4699540  14.0474440   6.4674420  84.2029230  13.4318950
   5.5562680  83.2231120  14.1401400  11.6503750  72.8565250  24.4678090
  12.0184570  72.0360460  24.7957660  10.7901950  72.9167140  24.8833740
  15.0165780  71.8122190  15.2765650  14.3878940  71.9167860  14.5623880
  14.5217700  72.0318970  16.0659530   9.4623920  83.5327780  12.7099630
   9.5635900  83.3291770  11.7801610   8.5625660  83.2786060  12.9147410
   6.9849810  74.0908140  16.6923530   6.2765960  74.5594480  17.1337140
   7.2694290  73.4330150  17.3268720   8.6105740  75.5104840  24.6916060
   9.1090990  75.9850660  25.3567910   8.7528690  74.5868360  24.8986090
  11.0165240  70.8158800  18.1319320  10.8933020  70.8344930  17.1828830
  11.9649800  70.8637740  18.2517720   8.1042030  86.0514100  17.4047300
   8.3583530  86.0135490  16.4826670   7.1554510  85.9247430  17.3975550
   5.1884830  72.3993220  14.0674240   6.0375360  72.8363370  14.0014430
   4.8216100  72.7113480  14.8946300  15.8172600  71.7272800  25.5344450
  15.3146200  72.4678200  25.8738260  16.6329260  72.1156800  25.2181240
  14.1094610  76.9705980  18.9805810  13.1684750  76.9856210  19.1553500
  14.4238680  76.1841940  19.4266110   4.0876250  78.6525580  12.5409770
   4.8539520  78.5406940  13.1035200   4.1650940  77.9563550  11.8886540
   2.7823010  76.0850650  13.2242660   2.8626600  75.1378160  13.3360060
   3.6742760  76.4157530  13.3303320  16.1120190  84.1414830  20.6560070
  16.2367610  84.9646000  21.1283880  16.9785750  83.9305560  20.3084220
   3.5837720  86.2346040  20.3277200   4.3200200  85.6861500  20.5985770
   3.9678640  87.1002050  20.1883190   2.5896000  85.4192110  29.5162780
   3.3908730  85.7404160  29.9298180   2.0747820  85.0587690  30.2382690
   6.6940030  85.4076350  12.1502770   7.4868640  85.6965180  11.6984560
   6.1744380  84.9768520  11.4715250  11.4260630  81.5271980  29.4638190
  10.8198790  81.5503580  28.7233940  11.1214740  80.7955020  30.0005440
  12.8561000  85.2552270  28.0747600  13.8082750  85.1710290  28.0247840
  12.7089220  85.9193980  28.7481390  15.7470200  84.6346480  13.5739510
  15.4611710  84.2211620  12.7593690  15.5489750  85.5634190  13.4540030
   7.2117430  80.6279760  12.0145120   7.1068070  80.0132110  12.7406500
   7.0441650  80.1045650  11.2308130   7.3631750  79.3136560  27.9934350
   6.5977420  79.8821560  27.9089020   7.5447710  79.0212770  27.1002580
  10.4520160  79.6899790  12.6187110   9.9030260  80.1369090  13.2629850
  11.0739420  79.1849040  13.1424780  14.5055100  81.0441890  28.5509370
  15.2464570  81.3817650  28.0476830  13.7427780  81.2133950  27.9979140
   2.3416890  76.0495160  29.3548900   2.3822230  75.7509030  30.2634130
   3.1962390  76.4502770  29.1956420   6.1195280  78.6490710  14.5152410
   6.5411700  78.4830580  15.3583800   6.2446120  77.8390940  14.0207550
   4.2822700  74.6287260  27.3223390   3.7519160  74.1378210  26.6946730
   4.9510770  75.0571460  26.7881320   8.6322920  77.6728320  11.7629510
   9.1528580  76.9577340  11.3970660   9.2791320  78.3114190  12.0630020
  13.1800760  79.0956720  27.0864580  13.5941780  79.2501800  27.9355000
  12.2451760  79.2211940  27.2490360  13.6522930  76.4352880  29.0903730
  14.2343700  75.6805200  29.0024210  13.8284700  76.9660320  28.3135210
   4.7695000  71.5949630  27.4020680   4.6751870  70.9770380  26.6771550
   4.1892390  72.3215920  27.1750590   7.5356440  70.1522870  24.4348070
   7.0873740  70.1747130  23.5893620   6.9021640  69.7541890  25.0318370
   7.9415990  79.0477200  25.0560510   8.3604100  79.8909930  24.8836750
   7.0224620  79.1849240  24.8267290  10.2779890  76.7793380  26.4398350
  10.3976100  76.1834520  27.1793190  11.1373890  76.8163070  26.0199650
  12.6167790  77.3330570  25.0160860  12.0903010  77.8573190  24.4126000
  12.9599130  77.9657960  25.6470590   5.0154180  74.7223940  11.4610570
   4.8143240  73.8591300  11.8223910   4.8446230  74.6357300  10.5232170
   5.7923410  85.3530210  26.1718240   5.2544500  86.0776270  25.8526940
   6.0457370  84.8760550  25.3815580   7.0448660  73.3214730  27.6974170
   7.6348350  73.0130580  28.3851990   6.2268900  72.8494480  27.8534070
  11.8642090  72.9380540  27.9307190  11.1757610  72.2762080  27.8657180
  12.5848110  72.4918810  28.3755650  12.4942490  69.5332170  13.9897450
  12.7744780  68.6900070  14.3456870  11.7208220  69.7655280  14.5036200
   3.8136980  71.8224560  11.4488450   4.1162880  71.8291990  10.5407600
   4.5531570  71.4722420  11.9456110   8.6485620  86.5881420  26.4304890
   8.5744320  87.4916560  26.7377260   7.7464460  86.2693320  26.4026960
   7.0321910  70.7659180  12.4344650   6.6843910  70.0883170  11.8547100
   7.2334680  70.3048690  13.2488040   9.1970950  85.7539930  14.0531250
  10.0921740  86.0924900  14.0750010   9.2288580  85.0319340  13.4255530
   2.8367110  81.1266980  12.2818250   3.2741980  81.6696650  12.9375830
   3.3214840  80.3013930  12.2914590   4.6474830  82.2465020  17.3940480
   4.3470370  82.1229990  18.2944390   4.5412320  81.3873610  16.9856210
  16.1765300  84.2843600  26.7597450  15.5767290  84.3436160  26.0161370
  16.3059200  83.3448580  26.8894300  17.4166750  82.0261420  12.0967160
  16.5859710  82.0938070  12.5674390  17.5938580  82.9165540  11.7934020
  16.8723210  78.7708900  14.6001360  17.6342120  79.3405550  14.7061050
  16.8877580  78.2036100  15.3709670  17.8783180  79.6259000  19.4443290
  18.2492010  78.8426320  19.0379260  18.5185110  80.3148100  19.2660590
  14.8616940  81.0095580  24.8573610  14.0476780  81.4392740  25.1199400
  15.2691140  81.6213990  24.2442660  16.9242380  79.0643270  11.7573880
  17.1991220  79.9722150  11.6293100  16.7353120  79.0005800  12.6935870
  13.3217990  72.0888120  13.0527510  13.7402870  71.9019100  12.2124170
  13.0154050  71.2367170  13.3630440  16.8207720  77.0012260  16.7503310
  16.4451320  76.2340190  16.3184600  16.0910840  77.3834960  17.2378240
  16.2107340  76.1483780  26.3842830  15.9793430  75.9196530  25.4840780
  16.4711890  77.0683330  26.3387720  14.6495410  71.3740210  29.1622530
  15.5265590  71.3823610  29.5456530  14.6616250  70.6371050  28.5514880
  16.0958680  75.2269750  20.0510550  16.6196160  74.7332400  19.4200720
  16.6818100  75.3620110  20.7958120  16.2748400  75.3109620  23.5730100
  15.3251110  75.2773160  23.6875090  16.4561410  76.2209730  23.3379870
   1.7767000  69.6150630  11.7231380   2.4995130  70.1559570  12.0412600
   2.0491520  69.3414050  10.8472920  15.5858650  74.4843100  15.9902960
  16.0817770  74.2513970  16.7751840  15.3874720  73.6454940  15.5740600
  17.0145810  73.1204050  18.5240640  16.9045090  72.9660090  19.4622910
  17.7753400  72.5924990  18.2816050  15.3611530  69.0598180  24.9823640
  15.9983750  69.6732320  25.3482830  15.5086420  69.0958840  24.0372870
  17.9036080  70.9511970  11.7646780  18.8285390  70.8193150  11.5565070
  17.8811870  71.0304790  12.7183230  17.9774570  71.7222630  14.3903490
  17.1826070  71.6567750  14.9196400  18.1817850  72.6573270  14.3788840
  14.9192990  85.7614180  18.3841880  15.5152060  85.4398750  17.7076300
  15.1771140  85.2886000  19.1755150   2.8255560  82.1932090  28.5332510
   2.7825190  81.8225000  29.4146970   2.9566570  83.1309660  28.6734330
   6.5261590  83.7491680  24.1342230   6.2852950  84.0166240  23.2472750
   7.4664230  83.9197410  24.1893090   8.7316010  70.2124370  27.8898740
   8.6704900  70.8046200  28.6394150   9.6716390  70.1050330  27.7449000
  11.3690570  69.8694430  27.5291030  11.9830980  70.1873720  26.8672110
  11.9140130  69.3843020  28.1486890  17.7865750  85.7686060  24.9352870
  17.2924030  86.1654930  24.2180000  17.1779040  85.1435270  25.3290150
   1.8911830  68.5488690  27.6430090   2.4394820  68.3676740  26.8796200
   1.9567140  67.7582800  28.1786400   2.6643590  85.1394340  25.6530290
   2.0703910  85.0079040  26.3920330   2.6567430  84.3032480  25.1872390
  12.1098610  68.4326570  23.8560320  11.2358450  68.7661680  23.6533250
  12.0009360  67.9599750  24.6812190  13.0170590  70.6397440  25.2402040
  12.6883950  69.8249200  24.8603770  13.9652890  70.5967250  25.1167730
  15.4705200  86.4109480  22.2139610  15.0108170  87.1625290  21.8397630
  14.8417660  85.6915950  22.1554410   5.9000920  84.7197720  21.3887740
   6.4165940  84.1085080  20.8636000   6.5498300  85.2226500  21.8798750
   8.6396420  85.6106210  22.2156720   8.9274230  85.3560510  21.3389730
   9.1519640  85.0583570  22.8062290   9.8573430  69.3496410  22.7953230
   9.0745220  69.8241910  23.0749990   9.5636360  68.4451240  22.6866410
  14.4094500  70.0519510  20.8402320  14.8502590  69.9964610  19.9923920
  14.1402090  70.9677520  20.9112500  16.2733070  69.6834750  18.8511140
  16.2121470  68.7395970  18.7042160  17.0525100  69.7914840  19.3964600
   7.7427650  71.7683160  18.3069260   6.9302160  71.3940050  17.9665140
   8.2469290  71.0128240  18.6090450  12.2452630  68.4325610  19.5452330
  12.8482000  69.0045820  20.0200850  11.5045620  68.9965050  19.3226230
  15.3887230  68.8347170  14.8192610  15.5837860  69.7330620  15.0860040
  14.6017100  68.6034250  15.3125560   2.1848520  84.5160340  15.2585230
   1.6596140  84.8968370  14.5547190   2.1093100  85.1411110  15.9794940
   3.5738990  70.1807940  13.8568920   4.1031750  69.3937740  13.7276870
   4.2067310  70.8599130  14.0904450   5.7676830  69.9183080  16.9114310
   5.1379570  69.2170390  17.0784440   5.2281970  70.6787210  16.6947470
   8.7068780  86.5322310  29.5824920   9.6336090  86.2966580  29.6260880
   8.6919210  87.3594310  29.1010950  16.9413840  86.0747880  16.5799170
  17.1166030  85.3885620  15.9360090  16.2435410  86.5994930  16.1875840
   5.8932390  69.1967060  29.3466800   5.6116660  69.7000660  28.5827620
   6.2752090  68.3988810  28.9808930   4.7841490  86.4642720  14.1334480
   5.5160310  86.1802000  13.5858370   5.0435160  86.2256000  15.0233860
   3.9456280  82.5807450  14.1380810   3.3165160  83.0492550  14.6866640
   4.0604110  81.7356670  14.5727000  12.4947850  68.6120640  29.9247270
  12.3813300  68.9315250  30.8198790  13.3117590  69.0133150  29.6284550
  15.2746340  85.7592170  29.4065960  16.0671660  85.2641400  29.1991920
  15.5679490  86.4382310  30.0141570   9.5324040  78.4092130   2.1691280
   8.7566140  77.9292570   2.4589850  10.1836970  77.7297780   1.9947440
   3.5489870  78.7211940   3.0467040   2.7174750  78.4660650   3.4463550
   4.1570850  78.7922710   3.7824960   3.5291130  82.7552030   3.2425060
   3.8319170  81.8649770   3.0635280   4.2734720  83.3122250   3.0147310
   8.9733030  81.0849320   2.1761440   8.9041310  80.1439260   2.0150570
   9.7352890  81.1750730   2.7484010   5.9750940  75.2331700   2.1972990
   6.4829160  75.7312670   2.8378010   6.5064180  74.4566900   2.0212350
  18.0761870  73.4036890   5.9002340  17.3714040  73.7918600   5.3817450
  18.3419790  74.0987180   6.5023270   4.2587040  69.8730260   6.4636410
   4.2605480  70.3902650   5.6582310   3.4291350  69.3960440   6.4406340
   5.5089890  79.5125440   4.6409910   5.1759270  80.1394360   5.2830980
   5.6856570  80.0387320   3.8611580  14.0223800  73.3270520   2.1086250
  13.3179370  73.6155410   2.6889360  14.3835960  74.1370630   1.7485810
   3.9402370  71.5840220   4.4706860   4.2819180  72.4282270   4.1760730
   3.0018180  71.7323960   4.5872200   4.7208990  81.4806240   6.4559090
   5.3382990  82.1557320   6.1743540   3.8602110  81.8894220   6.3646590
  15.6386580  82.9445650   4.3713730  14.9550100  83.6144760   4.3630400
  16.1780870  83.1426300   3.6058590  17.0910720  72.7725310   2.4995460
  16.1435630  72.8064290   2.6310890  17.4160710  73.5864260   2.8844820
  13.1745320  84.7889780   3.0858910  13.1872480  84.3852070   2.2181170
  12.6220540  85.5637070   2.9820340  12.5730760  79.6919620   4.4141520
  12.9899550  79.4779730   3.5794980  13.2970580  79.9492410   4.9850140
  16.5192860  78.0906840   4.5057760  15.6911490  78.1599930   4.0307890
  17.1143340  78.6761150   4.0373590  13.4834870  74.8776160   5.4512630
  13.0706050  75.7029870   5.7052620  12.7510820  74.2921200   5.2588990
   6.0849360  81.3503620   2.4770510   5.7877650  80.7449090   1.7978290
   7.0349180  81.3880930   2.3659870   4.3296280  74.4379270   4.0930340
   4.8810870  74.5474610   3.3183590   4.8439790  74.8116870   4.8085570
  14.1734970  84.9235490   6.1393610  13.6965530  85.7307680   5.9466220
  13.4896760  84.2713820   6.2919820   5.1767790  81.0885310   9.1278310
   4.2796320  81.3125280   9.3751710   5.2020660  81.2120250   8.1789710
   4.0039010  77.9598630   7.7035680   3.8646780  78.8321430   8.0723080
   3.1220370  77.6171440   7.5583620   5.8019360  83.9020330   9.9120830
   5.7734790  84.3063280   9.0449260   5.6384330  82.9730690   9.7492430
  17.7534180  84.6847430  11.2085000  18.2293900  85.1630320  11.8874080
  18.3741340  84.6164920  10.4830500  17.1567430  81.8760280   8.3685010
  17.2830490  81.6372160   7.4502190  17.1988810  81.0444820   8.8407090
  11.0184170  85.5788280   6.9379820  11.5328840  85.4896290   7.7402250
  10.1753250  85.9247980   7.2307730  17.0091440  73.9292740   9.3334750
  16.3935710  74.4372410   8.8050210  16.6887860  73.0291070   9.2760690
   9.0705760  72.7684630   6.7996940   8.6085130  72.9767650   7.6116880
   8.6683870  71.9543980   6.4967610  14.0710270  73.9893580   7.9293600
  13.2203860  73.6899330   8.2502670  13.9112060  74.2335590   7.0177420
  11.1659980  75.4895330  10.0292390  11.4913390  74.6559080   9.6894620
  11.9540310  76.0123850  10.1770720   6.8211850  70.4463440   3.0551220
   7.1184180  71.3526270   2.9743240   7.3697410  69.9582220   2.4410790
   7.0149380  75.9235260   9.5903140   6.9192980  74.9829990   9.4403540
   7.8581360  76.1450330   9.1951210   8.7204970  72.4183900  10.8133660
   8.0303290  72.2256100  11.4479750   9.4637270  72.7018540  11.3457960
  10.9967940  76.2582340   3.6487580  10.2649060  76.7669150   3.9977680
  10.5992280  75.4412320   3.3476360  11.4593850  71.7116020   3.0610520
  11.4766590  72.1624670   3.9052370  11.2109430  70.8121660   3.2743960
  14.8864600  69.1248200   8.8996900  15.2110370  68.3937860   9.4254880
  14.9221110  68.8061840   7.9977890   7.7353300  76.9938320   3.8005480
   8.1023430  76.5196890   4.5466820   7.5458360  77.8679890   4.1413820
   5.5252670  76.0346960   6.1189690   5.2209740  76.9138940   6.3440050
   6.4799130  76.0946750   6.1547130  14.8122440  79.2373310   2.5082930
  15.5321560  79.7328600   2.1179040  14.6104260  78.5591200   1.8636800
  10.1941240  79.3082370   8.3951930  10.1278550  78.3878040   8.1409520
   9.5646380  79.4057810   9.1096570   4.7829520  77.3333940  10.1500600
   4.4829660  77.4791120   9.2528420   5.5540760  76.7739230  10.0573990
  10.1257970  82.1302940   8.1455730  10.1402510  81.1983900   7.9274640
   9.4183070  82.2162700   8.7845500  16.3369180  78.7710280   7.4924310
  15.6117370  79.3639060   7.2953700  16.8644640  78.7633820   6.6937680
   9.5591870  83.7720510   5.2396230  10.2034090  83.9779890   5.9169650
   9.9221310  83.0108910   4.7867080  10.8323950  81.7752860   3.9573680
  11.4746180  81.0746020   4.0705850  11.3573300  82.5551300   3.7770570
  12.6061570  82.5747760   7.1609740  12.9417810  83.1614450   7.8387660
  11.6861910  82.4440470   7.3907530   8.4350150  82.6239090  10.3297800
   8.1147020  81.9048330  10.8743490   7.7608510  83.2994160  10.4033860
  11.6503750  72.8565250   5.6934600  12.0184570  72.0360460   6.0214170
  10.7901950  72.9167140   6.1090250   8.6105740  75.5104840   5.9172570
   9.1090990  75.9850660   6.5824420   8.7528690  74.5868360   6.1242600
  15.8172600  71.7272800   6.7600960  15.3146200  72.4678200   7.0994770
  16.6329260  72.1156800   6.4437750   2.5896000  85.4192110  10.7419290
   3.3908730  85.7404160  11.1554690   2.0747820  85.0587690  11.4639200
  11.4260630  81.5271980  10.6894700  10.8198790  81.5503580   9.9490450
  11.1214740  80.7955020  11.2261950  12.8561000  85.2552270   9.3004110
  13.8082750  85.1710290   9.2504350  12.7089220  85.9193980   9.9737900
   7.3631750  79.3136560   9.2190860   6.5977420  79.8821560   9.1345530
   7.5447710  79.0212770   8.3259090  14.5055100  81.0441890   9.7765880
  15.2464570  81.3817650   9.2733340  13.7427780  81.2133950   9.2235650
   2.3416890  76.0495160  10.5805410   2.3822230  75.7509030  11.4890640
   3.1962390  76.4502770  10.4212930   4.2822700  74.6287260   8.5479900
   3.7519160  74.1378210   7.9203240   4.9510770  75.0571460   8.0137830
  13.1800760  79.0956720   8.3121090  13.5941780  79.2501800   9.1611510
  12.2451760  79.2211940   8.4746870  13.6522930  76.4352880  10.3160240
  14.2343700  75.6805200  10.2280720  13.8284700  76.9660320   9.5391720
   4.7695000  71.5949630   8.6277190   4.6751870  70.9770380   7.9028060
   4.1892390  72.3215920   8.4007100   7.5356440  70.1522870   5.6604580
   7.0873740  70.1747130   4.8150130   6.9021640  69.7541890   6.2574880
   7.9415990  79.0477200   6.2817020   8.3604100  79.8909930   6.1093260
   7.0224620  79.1849240   6.0523800  10.2779890  76.7793380   7.6654860
  10.3976100  76.1834520   8.4049700  11.1373890  76.8163070   7.2456160
  12.6167790  77.3330570   6.2417370  12.0903010  77.8573190   5.6382510
  12.9599130  77.9657960   6.8727100   5.7923410  85.3530210   7.3974750
   5.2544500  86.0776270   7.0783450   6.0457370  84.8760550   6.6072090
   7.0448660  73.3214730   8.9230680   7.6348350  73.0130580   9.6108500
   6.2268900  72.8494480   9.0790580  11.8642090  72.9380540   9.1563700
  11.1757610  72.2762080   9.0913690  12.5848110  72.4918810   9.6012160
   8.6485620  86.5881420   7.6561400   8.5744320  87.4916560   7.9633770
   7.7464460  86.2693320   7.6283470  16.1765300  84.2843600   7.9853960
  15.5767290  84.3436160   7.2417880  16.3059200  83.3448580   8.1150810
  14.8616940  81.0095580   6.0830120  14.0476780  81.4392740   6.3455910
  15.2691140  81.6213990   5.4699170  16.2107340  76.1483780   7.6099340
  15.9793430  75.9196530   6.7097290  16.4711890  77.0683330   7.5644230
  14.6495410  71.3740210  10.3879040  15.5265590  71.3823610  10.7713040
  14.6616250  70.6371050   9.7771390  16.2748400  75.3109620   4.7986610
  15.3251110  75.2773160   4.9131600  16.4561410  76.2209730   4.5636380
  15.3611530  69.0598180   6.2080150  15.9983750  69.6732320   6.5739340
  15.5086420  69.0958840   5.2629380   2.8255560  82.1932090   9.7589020
   2.7825190  81.8225000  10.6403480   2.9566570  83.1309660   9.8990840
   6.5261590  83.7491680   5.3598740   6.2852950  84.0166240   4.4729260
   7.4664230  83.9197410   5.4149600   8.7316010  70.2124370   9.1155250
   8.6704900  70.8046200   9.8650660   9.6716390  70.1050330   8.9705510
  11.3690570  69.8694430   8.7547540  11.9830980  70.1873720   8.0928620
  11.9140130  69.3843020   9.3743400  17.7865750  85.7686060   6.1609380
  17.2924030  86.1654930   5.4436510  17.1779040  85.1435270   6.5546660
   1.8911830  68.5488690   8.8686600   2.4394820  68.3676740   8.1052710
   1.9567140  67.7582800   9.4042910   2.6643590  85.1394340   6.8786800
   2.0703910  85.0079040   7.6176840   2.6567430  84.3032480   6.4128900
  12.1098610  68.4326570   5.0816830  11.2358450  68.7661680   4.8789760
  12.0009360  67.9599750   5.9068700  13.0170590  70.6397440   6.4658550
  12.6883950  69.8249200   6.0860280  13.9652890  70.5967250   6.3424240
  15.4705200  86.4109480   3.4396120  15.0108170  87.1625290   3.0654140
  14.8417660  85.6915950   3.3810920   5.9000920  84.7197720   2.6144250
   6.4165940  84.1085080   2.0892510   6.5498300  85.2226500   3.1055260
   8.6396420  85.6106210   3.4413230   8.9274230  85.3560510   2.5646240
   9.1519640  85.0583570   4.0318800   9.8573430  69.3496410   4.0209740
   9.0745220  69.8241910   4.3006500   9.5636360  68.4451240   3.9122920
   8.7068780  86.5322310  10.8081430   9.6336090  86.2966580  10.8517390
   8.6919210  87.3594310  10.3267460   5.8932390  69.1967060  10.5723310
   5.6116660  69.7000660   9.8084130   6.2752090  68.3988810  10.2065440
  12.4947850  68.6120640  11.1503780  12.3813300  68.9315250  12.0455300
  13.3117590  69.0133150  10.8541060  15.2746340  85.7592170  10.6322470
  16.0671660  85.2641400  10.4248430  15.5679490  86.4382310  11.2398080
  11.4006000  57.8569620  94.1599460  11.3200050  56.9424230  93.8891170
  10.9870420  58.3536690  93.4539170  13.5531470  64.0408830  94.8207860
  13.0913000  63.2696070  95.1495030  14.3657020  64.0674900  95.3260310
   9.7794780  66.3266840  94.4411850   9.1606220  66.7824340  93.8706290
  10.6346560  66.4818300  94.0401550   4.1343210  53.4901840  91.7365260
   4.2409960  54.3905570  92.0434020   3.2235570  53.4419810  91.4459910
  13.7862320  52.6126650  93.2076160  14.6071940  52.1223220  93.2501640
  13.8196400  53.2024310  93.9608000  10.6458130  61.2106080  91.8343760
  10.0275400  61.6755530  91.2706480  11.1581380  61.9033560  92.2513270
   7.6230260  50.2979000  94.6668900   7.9305240  49.7425890  93.9504400
   6.6930960  50.4323460  94.4841890  14.4690740  62.7362510  92.0466530
  14.3587070  61.7936840  92.1715950  14.4658990  63.0978150  92.9329290
  10.0111020  58.3627830  91.4029020   9.0840300  58.2965210  91.6317490
  10.1635840  59.3007960  91.2884260   9.9980100  54.6344830  88.3996180
   9.0583770  54.7958790  88.4848640  10.3163360  55.3530510  87.8532170
  14.0408310  59.9248130  91.9064270  13.4220730  59.5867680  91.2590570
  14.0232760  59.2807890  92.6143460   5.6167660  58.8892570  94.1848750
   5.2124660  58.1769820  93.6894650   5.7030780  58.5445810  95.0736790
  12.2173010  59.1634940  88.9137020  12.6566290  58.3257370  88.7674840
  12.9301430  59.7964340  89.0001160  10.3268390  64.1031010  92.8818260
  10.7664300  64.8455340  92.4673650  10.2655280  64.3457580  93.8057220
  15.7990150  50.4177750  87.2278060  15.4862810  50.5104580  88.1277130
  16.5602620  50.9958780  87.1775490   2.3172290  57.7837550  91.6855400
   2.1969890  58.5099640  91.0736670   2.0073180  57.0140460  91.2083310
  12.9938570  67.0900130  90.2381270  12.8339710  66.8003070  91.1363100
  12.8285280  66.3140260  89.7026500   5.4726950  66.8698660  92.0152890
   5.2969430  65.9534200  91.8020690   4.6182690  67.2285950  92.2550690
  12.6964700  64.5987690  88.7979270  12.0029860  64.5964980  88.1381550
  13.4387560  64.1747010  88.3673440  12.2614630  66.2250400  92.8727760
  12.7171580  65.4439780  93.1866380  12.6007150  66.9357220  93.4168940
   4.7835950  51.1272620  95.0679070   4.3404100  51.9082160  94.7363590
   5.3420940  51.4502510  95.7750010   7.8994770  50.7483320  89.9484900
   7.2748950  50.7443190  90.6738210   7.8124890  49.8814280  89.5520870
   4.5750170  56.2506190  92.7960320   4.3491090  56.0343360  93.7006940
   3.7942700  56.6834650  92.4506290  11.8047930  56.2569560  91.3950970
  11.2056820  56.9805360  91.2114590  12.3527540  56.1946340  90.6127420
  10.4112800  54.8933100  93.4254250  10.8042370  55.2105300  92.6122940
  10.7729650  54.0144980  93.5398770   7.4345330  54.1593050  95.9257520
   7.4381390  53.7183000  95.0762060   8.3296450  54.4810380  96.0329340
   3.2847710  54.0419540  94.8851730   2.9447760  54.5194770  95.6418780
   2.5225030  53.5884660  94.5252830   7.4965480  55.1605130  88.9164280
   7.6178300  55.1191610  89.8650100   7.1113990  56.0229280  88.7611010
   6.5086980  57.4706270  88.3147580   5.9403880  57.0224520  87.6883490
   7.2175980  57.8299050  87.7812730   4.0534460  61.4664460  90.5873990
   3.2796720  60.9262080  90.4272710   4.7829090  60.9471070  90.2491750
  10.2732380  51.8567780  90.5229770   9.4596990  51.3580950  90.4475080
  10.0794330  52.6966030  90.1066120  12.9880770  56.2287430  88.8191930
  13.8760390  56.5404660  88.6443270  12.9585860  55.3559680  88.4272510
   4.0971860  61.1344840  94.2252800   4.6150530  60.3313100  94.1709690
   3.6455880  61.0723980  95.0669630   8.9841360  62.4011120  89.4980100
   9.3257060  63.1453350  89.0023420   8.1554070  62.7142240  89.8604930
  15.2595040  57.5399270  88.2871790  15.1758760  57.9713490  87.4368230
  15.9789230  57.9997620  88.7198610  16.2882290  64.3941530  91.0153920
  15.6458450  63.7397150  91.2897640  15.9012950  64.7996620  90.2394590
  11.8668770  61.7226960  94.8625610  12.2192590  61.1255090  94.2026980
  10.9831100  61.3971190  95.0333860   7.9532050  62.4824650  92.2696020
   8.6403180  63.0293860  92.6503610   7.1664470  63.0265380  92.3045630
   7.2559260  59.4870680  91.8821380   7.7122040  60.2975930  92.1081570
   6.9047470  59.1693820  92.7139870   3.1571040  49.8308330  92.3543900
   3.0285670  49.8226230  93.3028820   2.3333060  50.1691420  92.0034910
  14.6779670  63.2857990  87.5530270  14.4517250  62.5688430  88.1454910
  14.2875870  63.0370430  86.7152020  14.2595920  61.2029930  89.2144430
  13.9717620  61.6642620  90.0022310  15.0548090  60.7427700  89.4828650
   6.4764320  64.6956050  89.1448400   6.4674420  65.4285740  88.5292910
   5.5562680  64.4487630  89.2375360  15.0165780  53.0378700  90.3739610
  14.3878940  53.1424370  89.6597840  14.5217700  53.2575480  91.1633490
   9.4623920  64.7584290  87.8073590   9.5635900  64.5548280  86.8775570
   8.5625660  64.5042570  88.0121370   6.9849810  55.3164650  91.7897490
   6.2765960  55.7850990  92.2311100   7.2694290  54.6586660  92.4242680
  11.0165240  52.0415310  93.2293280  10.8933020  52.0601440  92.2802790
  11.9649800  52.0894250  93.3491680   8.1042030  67.2770610  92.5021260
   8.3583530  67.2392000  91.5800630   7.1554510  67.1503940  92.4949510
   5.1884830  53.6249730  89.1648200   6.0375360  54.0619880  89.0988390
   4.8216100  53.9369990  89.9920260  14.1094610  58.1962490  94.0779770
  13.1684750  58.2112720  94.2527460  14.4238680  57.4098450  94.5240070
   4.0876250  59.8782090  87.6383730   4.8539520  59.7663450  88.2009160
   4.1650940  59.1820060  86.9860500   2.7823010  57.3107160  88.3216620
   2.8626600  56.3634670  88.4334020   3.6742760  57.6414040  88.4277280
   3.5837720  67.4602550  95.4251160   4.3200200  66.9118010  95.6959730
   3.9678640  68.3258560  95.2857150   6.6940030  66.6332860  87.2476730
   7.4868640  66.9221690  86.7958520   6.1744380  66.2025030  86.5689210
  15.7470200  65.8602990  88.6713470  15.4611710  65.4468130  87.8567650
  15.5489750  66.7890700  88.5513990   7.2117430  61.8536270  87.1119080
   7.1068070  61.2388620  87.8380460   7.0441650  61.3302160  86.3282090
  10.4520160  60.9156300  87.7161070   9.9030260  61.3625600  88.3603810
  11.0739420  60.4105550  88.2398740   6.1195280  59.8747220  89.6126370
   6.5411700  59.7087090  90.4557760   6.2446120  59.0647450  89.1181510
   8.6322920  58.8984830  86.8603470   9.1528580  58.1833850  86.4944620
   9.2791320  59.5370700  87.1603980   5.0154180  55.9480450  86.5584530
   4.8143240  55.0847810  86.9197870   4.8446230  55.8613810  85.6206130
  12.4942490  50.7588680  89.0871410  12.7744780  49.9156580  89.4430830
  11.7208220  50.9911790  89.6010160   3.8136980  53.0481070  86.5462410
   4.1162880  53.0548500  85.6381560   4.5531570  52.6978930  87.0430070
   7.0321910  51.9915690  87.5318610   6.6843910  51.3139680  86.9521060
   7.2334680  51.5305200  88.3462000   9.1970950  66.9796440  89.1505210
  10.0921740  67.3181410  89.1723970   9.2288580  66.2575850  88.5229490
   2.8367110  62.3523490  87.3792210   3.2741980  62.8953160  88.0349790
   3.3214840  61.5270440  87.3888550   4.6474830  63.4721530  92.4914440
   4.3470370  63.3486500  93.3918350   4.5412320  62.6130120  92.0830170
  17.4166750  63.2517930  87.1941120  16.5859710  63.3194580  87.6648350
  17.5938580  64.1422050  86.8907980  16.8723210  59.9965410  89.6975320
  17.6342120  60.5662060  89.8035010  16.8877580  59.4292610  90.4683630
  17.8783180  60.8515510  94.5417250  18.2492010  60.0682830  94.1353220
  18.5185110  61.5404610  94.3634550  16.9242380  60.2899780  86.8547840
  17.1991220  61.1978660  86.7267060  16.7353120  60.2262310  87.7909830
  13.3217990  53.3144630  88.1501470  13.7402870  53.1275610  87.3098130
  13.0154050  52.4623680  88.4604400  16.8207720  58.2268770  91.8477270
  16.4451320  57.4596700  91.4158560  16.0910840  58.6091470  92.3352200
  16.0958680  56.4526260  95.1484510  16.6196160  55.9588910  94.5174680
  16.6818100  56.5876620  95.8932080   1.7767000  50.8407140  86.8205340
   2.4995130  51.3816080  87.1386560   2.0491520  50.5670560  85.9446880
  15.5858650  55.7099610  91.0876920  16.0817770  55.4770480  91.8725800
  15.3874720  54.8711450  90.6714560  17.0145810  54.3460560  93.6214600
  16.9045090  54.1916600  94.5596870  17.7753400  53.8181500  93.3790010
  17.9036080  52.1768480  86.8620740  18.8285390  52.0449660  86.6539030
  17.8811870  52.2561300  87.8157190  17.9774570  52.9479140  89.4877450
  17.1826070  52.8824260  90.0170360  18.1817850  53.8829780  89.4762800
  14.9192990  66.9870690  93.4815840  15.5152060  66.6655260  92.8050260
  15.1771140  66.5142510  94.2729110  14.4094500  51.2776020  95.9376280
  14.8502590  51.2221120  95.0897880  14.1402090  52.1934030  96.0086460
  16.2733070  50.9091260  93.9485100  16.2121470  49.9652480  93.8016120
  17.0525100  51.0171350  94.4938560   7.7427650  52.9939670  93.4043220
   6.9302160  52.6196560  93.0639100   8.2469290  52.2384750  93.7064410
  12.2452630  49.6582120  94.6426290  12.8482000  50.2302330  95.1174810
  11.5045620  50.2221560  94.4200190  15.3887230  50.0603680  89.9166570
  15.5837860  50.9587130  90.1834000  14.6017100  49.8290760  90.4099520
   2.1848520  65.7416850  90.3559190   1.6596140  66.1224880  89.6521150
   2.1093100  66.3667620  91.0768900   3.5738990  51.4064450  88.9542880
   4.1031750  50.6194250  88.8250830   4.2067310  52.0855640  89.1878410
   5.7676830  51.1439590  92.0088270   5.1379570  50.4426900  92.1758400
   5.2281970  51.9043720  91.7921430  16.9413840  67.3004390  91.6773130
  17.1166030  66.6142130  91.0334050  16.2435410  67.8251440  91.2849800
   4.7841490  67.6899230  89.2308440   5.5160310  67.4058510  88.6832330
   5.0435160  67.4512510  90.1207820   3.9456280  63.8063960  89.2354770
   3.3165160  64.2749060  89.7840600   4.0604110  62.9613180  89.6700960
  11.4006000  57.8569620  75.3855970  11.3200050  56.9424230  75.1147680
  10.9870420  58.3536690  74.6795680   9.5324040  59.6348640  77.2665240
   8.7566140  59.1549080  77.5563810  10.1836970  58.9554290  77.0921400
   3.5489870  59.9468450  78.1441000   2.7174750  59.6917160  78.5437510
   4.1570850  60.0179220  78.8798920  13.5531470  64.0408830  76.0464370
  13.0913000  63.2696070  76.3751540  14.3657020  64.0674900  76.5516820
   3.5291130  63.9808540  78.3399020   3.8319170  63.0906280  78.1609240
   4.2734720  64.5378760  78.1121270   9.7794780  66.3266840  75.6668360
   9.1606220  66.7824340  75.0962800  10.6346560  66.4818300  75.2658060
   8.9733030  62.3105830  77.2735400   8.9041310  61.3695770  77.1124530
   9.7352890  62.4007240  77.8457970  10.0038200  55.1176210  77.5004330
  10.3803020  54.2448090  77.3878000   9.9057710  55.4534910  76.6094770
   4.1343210  53.4901840  72.9621770   4.2409960  54.3905570  73.2690530
   3.2235570  53.4419810  72.6716420  13.7862320  52.6126650  74.4332670
  14.6071940  52.1223220  74.4758150  13.8196400  53.2024310  75.1864510
   5.9750940  56.4588210  77.2946950   6.4829160  56.9569180  77.9351970
   6.5064180  55.6823410  77.1186310  18.0761870  54.6293400  80.9976300
  17.3714040  55.0175110  80.4791410  18.3419790  55.3243690  81.5997230
   4.2587040  51.0986770  81.5610370   4.2605480  51.6159160  80.7556270
   3.4291350  50.6216950  81.5380300  10.6458130  61.2106080  73.0600270
  10.0275400  61.6755530  72.4962990  11.1581380  61.9033560  73.4769780
   5.5089890  60.7381950  79.7383870   5.1759270  61.3650870  80.3804940
   5.6856570  61.2643830  78.9585540  14.0223800  54.5527030  77.2060210
  13.3179370  54.8411920  77.7863320  14.3835960  55.3627140  76.8459770
   3.9402370  52.8096730  79.5680820   4.2819180  53.6538780  79.2734690
   3.0018180  52.9580470  79.6846160   4.7208990  62.7062750  81.5533050
   5.3382990  63.3813830  81.2717500   3.8602110  63.1150730  81.4620550
  15.6386580  64.1702160  79.4687690  14.9550100  64.8401270  79.4604360
  16.1780870  64.3682810  78.7032550  17.0910720  53.9981820  77.5969420
  16.1435630  54.0320800  77.7284850  17.4160710  54.8120770  77.9818780
   7.6230260  50.2979000  75.8925410   7.9305240  49.7425890  75.1760910
   6.6930960  50.4323460  75.7098400  13.1745320  66.0146290  78.1832870
  13.1872480  65.6108580  77.3155130  12.6220540  66.7893580  78.0794300
  14.4690740  62.7362510  73.2723040  14.3587070  61.7936840  73.3972460
  14.4658990  63.0978150  74.1585800  12.5730760  60.9176130  79.5115480
  12.9899550  60.7036240  78.6768940  13.2970580  61.1748920  80.0824100
  10.0111020  58.3627830  72.6285530   9.0840300  58.2965210  72.8574000
  10.1635840  59.3007960  72.5140770   9.9980100  54.6344830  69.6252690
   9.0583770  54.7958790  69.7105150  10.3163360  55.3530510  69.0788680
  16.5192860  59.3163350  79.6031720  15.6911490  59.3856440  79.1281850
  17.1143340  59.9017660  79.1347550  14.0408310  59.9248130  73.1320780
  13.4220730  59.5867680  72.4847080  14.0232760  59.2807890  73.8399970
  13.4834870  56.1032670  80.5486590  13.0706050  56.9286380  80.8026580
  12.7510820  55.5177710  80.3562950   5.6167660  58.8892570  75.4105260
   5.2124660  58.1769820  74.9151160   5.7030780  58.5445810  76.2993300
   6.0849360  62.5760130  77.5744470   5.7877650  61.9705600  76.8952250
   7.0349180  62.6137440  77.4633830   4.3296280  55.6635780  79.1904300
   4.8810870  55.7731120  78.4157550   4.8439790  56.0373380  79.9059530
  14.1734970  66.1492000  81.2367570  13.6965530  66.9564190  81.0440180
  13.4896760  65.4970330  81.3893780   5.1767790  62.3141820  84.2252270
   4.2796320  62.5381790  84.4725670   5.2020660  62.4376760  83.2763670
  12.2173010  59.1634940  70.1393530  12.6566290  58.3257370  69.9931350
  12.9301430  59.7964340  70.2257670   4.0039010  59.1855140  82.8009640
   3.8646780  60.0577940  83.1697040   3.1220370  58.8427950  82.6557580
  10.3268390  64.1031010  74.1074770  10.7664300  64.8455340  73.6930160
  10.2655280  64.3457580  75.0313730   5.8019360  65.1276840  85.0094790
   5.7734790  65.5319790  84.1423220   5.6384330  64.1987200  84.8466390
  15.7990150  50.4177750  68.4534570  15.4862810  50.5104580  69.3533640
  16.5602620  50.9958780  68.4032000   2.3172290  57.7837550  72.9111910
   2.1969890  58.5099640  72.2993180   2.0073180  57.0140460  72.4339820
  17.7534180  65.9103940  86.3058960  18.2293900  66.3886830  86.9848040
  18.3741340  65.8421430  85.5804460  17.1567430  63.1016790  83.4658970
  17.2830490  62.8628670  82.5476150  17.1988810  62.2701330  83.9381050
  11.0184170  66.8044790  82.0353780  11.5328840  66.7152800  82.8376210
  10.1753250  67.1504490  82.3281690  12.9938570  67.0900130  71.4637780
  12.8339710  66.8003070  72.3619610  12.8285280  66.3140260  70.9283010
   5.4726950  66.8698660  73.2409400   5.2969430  65.9534200  73.0277200
   4.6182690  67.2285950  73.4807200  12.6964700  64.5987690  70.0235780
  12.0029860  64.5964980  69.3638060  13.4387560  64.1747010  69.5929950
  12.2614630  66.2250400  74.0984270  12.7171580  65.4439780  74.4122890
  12.6007150  66.9357220  74.6425450  17.0091440  55.1549250  84.4308710
  16.3935710  55.6628920  83.9024170  16.6887860  54.2547580  84.3734650
   4.7835950  51.1272620  76.2935580   4.3404100  51.9082160  75.9620100
   5.3420940  51.4502510  77.0006520   9.0705760  53.9941140  81.8970900
   8.6085130  54.2024160  82.7090840   8.6683870  53.1800490  81.5941570
  14.0710270  55.2150090  83.0267560  13.2203860  54.9155840  83.3476630
  13.9112060  55.4592100  82.1151380  11.1659980  56.7151840  85.1266350
  11.4913390  55.8815590  84.7868580  11.9540310  57.2380360  85.2744680
   7.8994770  50.7483320  71.1741410   7.2748950  50.7443190  71.8994720
   7.8124890  49.8814280  70.7777380   6.8211850  51.6719950  78.1525180
   7.1184180  52.5782780  78.0717200   7.3697410  51.1838730  77.5384750
   4.5750170  56.2506190  74.0216830   4.3491090  56.0343360  74.9263450
   3.7942700  56.6834650  73.6762800  11.8047930  56.2569560  72.6207480
  11.2056820  56.9805360  72.4371100  12.3527540  56.1946340  71.8383930
   7.0149380  57.1491770  84.6877100   6.9192980  56.2086500  84.5377500
   7.8581360  57.3706840  84.2925170  10.4112800  54.8933100  74.6510760
  10.8042370  55.2105300  73.8379450  10.7729650  54.0144980  74.7655280
   8.7204970  53.6440410  85.9107620   8.0303290  53.4512610  86.5453710
   9.4637270  53.9275050  86.4431920  10.9967940  57.4838850  78.7461540
  10.2649060  57.9925660  79.0951640  10.5992280  56.6668830  78.4450320
   7.4345330  54.1593050  77.1514030   7.4381390  53.7183000  76.3018570
   8.3296450  54.4810380  77.2585850   3.2847710  54.0419540  76.1108240
   2.9447760  54.5194770  76.8675290   2.5225030  53.5884660  75.7509340
   7.4965480  55.1605130  70.1420790   7.6178300  55.1191610  71.0906610
   7.1113990  56.0229280  69.9867520  11.4593850  52.9372530  78.1584480
  11.4766590  53.3881180  79.0026330  11.2109430  52.0378170  78.3717920
   6.5086980  57.4706270  69.5404090   5.9403880  57.0224520  68.9140000
   7.2175980  57.8299050  69.0069240  14.8864600  50.3504710  83.9970860
  15.2110370  49.6194370  84.5228840  14.9221110  50.0318350  83.0951850
   7.7353300  58.2194830  78.8979440   8.1023430  57.7453400  79.6440780
   7.5458360  59.0936400  79.2387780   5.5252670  57.2603470  81.2163650
   5.2209740  58.1395450  81.4414010   6.4799130  57.3203260  81.2521090
   4.0534460  61.4664460  71.8130500   3.2796720  60.9262080  71.6529220
   4.7829090  60.9471070  71.4748260  14.8122440  60.4629820  77.6056890
  15.5321560  60.9585110  77.2153000  14.6104260  59.7847710  76.9610760
  10.2732380  51.8567780  71.7486280   9.4596990  51.3580950  71.6731590
  10.0794330  52.6966030  71.3322630  10.1941240  60.5338880  83.4925890
  10.1278550  59.6134550  83.2383480   9.5646380  60.6314320  84.2070530
  12.9880770  56.2287430  70.0448440  13.8760390  56.5404660  69.8699780
  12.9585860  55.3559680  69.6529020   4.0971860  61.1344840  75.4509310
   4.6150530  60.3313100  75.3966200   3.6455880  61.0723980  76.2926140
   8.9841360  62.4011120  70.7236610   9.3257060  63.1453350  70.2279930
   8.1554070  62.7142240  71.0861440   4.7829520  58.5590450  85.2474560
   4.4829660  58.7047630  84.3502380   5.5540760  57.9995740  85.1547950
  10.1257970  63.3559450  83.2429690  10.1402510  62.4240410  83.0248600
   9.4183070  63.4419210  83.8819460  15.2595040  57.5399270  69.5128300
  15.1758760  57.9713490  68.6624740  15.9789230  57.9997620  69.9455120
  16.3369180  59.9966790  82.5898270  15.6117370  60.5895570  82.3927660
  16.8644640  59.9890330  81.7911640  16.2882290  64.3941530  72.2410430
  15.6458450  63.7397150  72.5154150  15.9012950  64.7996620  71.4651100
  11.8668770  61.7226960  76.0882120  12.2192590  61.1255090  75.4283490
  10.9831100  61.3971190  76.2590370   7.9532050  62.4824650  73.4952530
   8.6403180  63.0293860  73.8760120   7.1664470  63.0265380  73.5302140
   7.2559260  59.4870680  73.1077890   7.7122040  60.2975930  73.3338080
   6.9047470  59.1693820  73.9396380   9.5591870  64.9977020  80.3370190
  10.2034090  65.2036400  81.0143610   9.9221310  64.2365420  79.8841040
   3.1571040  49.8308330  73.5800410   3.0285670  49.8226230  74.5285330
   2.3333060  50.1691420  73.2291420  10.8323950  63.0009370  79.0547640
  11.4746180  62.3002530  79.1679810  11.3573300  63.7807810  78.8744530
  14.6779670  63.2857990  68.7786780  14.4517250  62.5688430  69.3711420
  14.2875870  63.0370430  67.9408530  12.6061570  63.8004270  82.2583700
  12.9417810  64.3870960  82.9361620  11.6861910  63.6696980  82.4881490
  14.2595920  61.2029930  70.4400940  13.9717620  61.6642620  71.2278820
  15.0548090  60.7427700  70.7085160   8.4350150  63.8495600  85.4271760
   8.1147020  63.1304840  85.9717450   7.7608510  64.5250670  85.5007820
   6.4764320  64.6956050  70.3704910   6.4674420  65.4285740  69.7549420
   5.5562680  64.4487630  70.4631870  11.6503750  54.0821760  80.7908560
  12.0184570  53.2616970  81.1188130  10.7901950  54.1423650  81.2064210
  15.0165780  53.0378700  71.5996120  14.3878940  53.1424370  70.8854350
  14.5217700  53.2575480  72.3890000   9.4623920  64.7584290  69.0330100
   9.5635900  64.5548280  68.1032080   8.5625660  64.5042570  69.2377880
   6.9849810  55.3164650  73.0154000   6.2765960  55.7850990  73.4567610
   7.2694290  54.6586660  73.6499190   8.6105740  56.7361350  81.0146530
   9.1090990  57.2107170  81.6798380   8.7528690  55.8124870  81.2216560
  11.0165240  52.0415310  74.4549790  10.8933020  52.0601440  73.5059300
  11.9649800  52.0894250  74.5748190   8.1042030  67.2770610  73.7277770
   8.3583530  67.2392000  72.8057140   7.1554510  67.1503940  73.7206020
   5.1884830  53.6249730  70.3904710   6.0375360  54.0619880  70.3244900
   4.8216100  53.9369990  71.2176770  15.8172600  52.9529310  81.8574920
  15.3146200  53.6934710  82.1968730  16.6329260  53.3413310  81.5411710
  14.1094610  58.1962490  75.3036280  13.1684750  58.2112720  75.4783970
  14.4238680  57.4098450  75.7496580   4.0876250  59.8782090  68.8640240
   4.8539520  59.7663450  69.4265670   4.1650940  59.1820060  68.2117010
   2.7823010  57.3107160  69.5473130   2.8626600  56.3634670  69.6590530
   3.6742760  57.6414040  69.6533790  16.1120190  65.3671340  76.9790540
  16.2367610  66.1902510  77.4514350  16.9785750  65.1562070  76.6314690
   3.5837720  67.4602550  76.6507670   4.3200200  66.9118010  76.9216240
   3.9678640  68.3258560  76.5113660   2.5896000  66.6448620  85.8393250
   3.3908730  66.9660670  86.2528650   2.0747820  66.2844200  86.5613160
   6.6940030  66.6332860  68.4733240   7.4868640  66.9221690  68.0215030
   6.1744380  66.2025030  67.7945720  11.4260630  62.7528490  85.7868660
  10.8198790  62.7760090  85.0464410  11.1214740  62.0211530  86.3235910
  12.8561000  66.4808780  84.3978070  13.8082750  66.3966800  84.3478310
  12.7089220  67.1450490  85.0711860  15.7470200  65.8602990  69.8969980
  15.4611710  65.4468130  69.0824160  15.5489750  66.7890700  69.7770500
   7.2117430  61.8536270  68.3375590   7.1068070  61.2388620  69.0636970
   7.0441650  61.3302160  67.5538600   7.3631750  60.5393070  84.3164820
   6.5977420  61.1078070  84.2319490   7.5447710  60.2469280  83.4233050
  10.4520160  60.9156300  68.9417580   9.9030260  61.3625600  69.5860320
  11.0739420  60.4105550  69.4655250  14.5055100  62.2698400  84.8739840
  15.2464570  62.6074160  84.3707300  13.7427780  62.4390460  84.3209610
   2.3416890  57.2751670  85.6779370   2.3822230  56.9765540  86.5864600
   3.1962390  57.6759280  85.5186890   6.1195280  59.8747220  70.8382880
   6.5411700  59.7087090  71.6814270   6.2446120  59.0647450  70.3438020
   4.2822700  55.8543770  83.6453860   3.7519160  55.3634720  83.0177200
   4.9510770  56.2827970  83.1111790   8.6322920  58.8984830  68.0859980
   9.1528580  58.1833850  67.7201130   9.2791320  59.5370700  68.3860490
  13.1800760  60.3213230  83.4095050  13.5941780  60.4758310  84.2585470
  12.2451760  60.4468450  83.5720830  13.6522930  57.6609390  85.4134200
  14.2343700  56.9061710  85.3254680  13.8284700  58.1916830  84.6365680
   4.7695000  52.8206140  83.7251150   4.6751870  52.2026890  83.0002020
   4.1892390  53.5472430  83.4981060   7.5356440  51.3779380  80.7578540
   7.0873740  51.4003640  79.9124090   6.9021640  50.9798400  81.3548840
   7.9415990  60.2733710  81.3790980   8.3604100  61.1166440  81.2067220
   7.0224620  60.4105750  81.1497760  10.2779890  58.0049890  82.7628820
  10.3976100  57.4091030  83.5023660  11.1373890  58.0419580  82.3430120
  12.6167790  58.5587080  81.3391330  12.0903010  59.0829700  80.7356470
  12.9599130  59.1914470  81.9701060   5.0154180  55.9480450  67.7841040
   4.8143240  55.0847810  68.1454380   4.8446230  55.8613810  66.8462640
   5.7923410  66.5786720  82.4948710   5.2544500  67.3032780  82.1757410
   6.0457370  66.1017060  81.7046050   7.0448660  54.5471240  84.0204640
   7.6348350  54.2387090  84.7082460   6.2268900  54.0750990  84.1764540
  11.8642090  54.1637050  84.2537660  11.1757610  53.5018590  84.1887650
  12.5848110  53.7175320  84.6986120  12.4942490  50.7588680  70.3127920
  12.7744780  49.9156580  70.6687340  11.7208220  50.9911790  70.8266670
   3.8136980  53.0481070  67.7718920   4.1162880  53.0548500  66.8638070
   4.5531570  52.6978930  68.2686580   8.6485620  67.8137930  82.7535360
   8.5744320  68.7173070  83.0607730   7.7464460  67.4949830  82.7257430
   7.0321910  51.9915690  68.7575120   6.6843910  51.3139680  68.1777570
   7.2334680  51.5305200  69.5718510   9.1970950  66.9796440  70.3761720
  10.0921740  67.3181410  70.3980480   9.2288580  66.2575850  69.7486000
   2.8367110  62.3523490  68.6048720   3.2741980  62.8953160  69.2606300
   3.3214840  61.5270440  68.6145060   4.6474830  63.4721530  73.7170950
   4.3470370  63.3486500  74.6174860   4.5412320  62.6130120  73.3086680
  16.1765300  65.5100110  83.0827920  15.5767290  65.5692670  82.3391840
  16.3059200  64.5705090  83.2124770  17.4166750  63.2517930  68.4197630
  16.5859710  63.3194580  68.8904860  17.5938580  64.1422050  68.1164490
  16.8723210  59.9965410  70.9231830  17.6342120  60.5662060  71.0291520
  16.8877580  59.4292610  71.6940140  17.8783180  60.8515510  75.7673760
  18.2492010  60.0682830  75.3609730  18.5185110  61.5404610  75.5891060
  14.8616940  62.2352090  81.1804080  14.0476780  62.6649250  81.4429870
  15.2691140  62.8470500  80.5673130  16.9242380  60.2899780  68.0804350
  17.1991220  61.1978660  67.9523570  16.7353120  60.2262310  69.0166340
  13.3217990  53.3144630  69.3757980  13.7402870  53.1275610  68.5354640
  13.0154050  52.4623680  69.6860910  16.8207720  58.2268770  73.0733780
  16.4451320  57.4596700  72.6415070  16.0910840  58.6091470  73.5608710
  16.2107340  57.3740290  82.7073300  15.9793430  57.1453040  81.8071250
  16.4711890  58.2939840  82.6618190  14.6495410  52.5996720  85.4853000
  15.5265590  52.6080120  85.8687000  14.6616250  51.8627560  84.8745350
  16.0958680  56.4526260  76.3741020  16.6196160  55.9588910  75.7431190
  16.6818100  56.5876620  77.1188590  16.2748400  56.5366130  79.8960570
  15.3251110  56.5029670  80.0105560  16.4561410  57.4466240  79.6610340
   1.7767000  50.8407140  68.0461850   2.4995130  51.3816080  68.3643070
   2.0491520  50.5670560  67.1703390  15.5858650  55.7099610  72.3133430
  16.0817770  55.4770480  73.0982310  15.3874720  54.8711450  71.8971070
  17.0145810  54.3460560  74.8471110  16.9045090  54.1916600  75.7853380
  17.7753400  53.8181500  74.6046520  15.3611530  50.2854690  81.3054110
  15.9983750  50.8988830  81.6713300  15.5086420  50.3215350  80.3603340
  17.9036080  52.1768480  68.0877250  18.8285390  52.0449660  67.8795540
  17.8811870  52.2561300  69.0413700  17.9774570  52.9479140  70.7133960
  17.1826070  52.8824260  71.2426870  18.1817850  53.8829780  70.7019310
  14.9192990  66.9870690  74.7072350  15.5152060  66.6655260  74.0306770
  15.1771140  66.5142510  75.4985620   2.8255560  63.4188600  84.8562980
   2.7825190  63.0481510  85.7377440   2.9566570  64.3566170  84.9964800
   6.5261590  64.9748190  80.4572700   6.2852950  65.2422750  79.5703220
   7.4664230  65.1453920  80.5123560   8.7316010  51.4380880  84.2129210
   8.6704900  52.0302710  84.9624620   9.6716390  51.3306840  84.0679470
  11.3690570  51.0950940  83.8521500  11.9830980  51.4130230  83.1902580
  11.9140130  50.6099530  84.4717360  17.7865750  66.9942570  81.2583340
  17.2924030  67.3911440  80.5410470  17.1779040  66.3691780  81.6520620
   1.8911830  49.7745200  83.9660560   2.4394820  49.5933250  83.2026670
   1.9567140  48.9839310  84.5016870   2.6643590  66.3650850  81.9760760
   2.0703910  66.2335550  82.7150800   2.6567430  65.5288990  81.5102860
  12.1098610  49.6583080  80.1790790  11.2358450  49.9918190  79.9763720
  12.0009360  49.1856260  81.0042660  13.0170590  51.8653950  81.5632510
  12.6883950  51.0505710  81.1834240  13.9652890  51.8223760  81.4398200
  15.4705200  67.6365990  78.5370080  15.0108170  68.3881800  78.1628100
  14.8417660  66.9172460  78.4784880   5.9000920  65.9454230  77.7118210
   6.4165940  65.3341590  77.1866470   6.5498300  66.4483010  78.2029220
   8.6396420  66.8362720  78.5387190   8.9274230  66.5817020  77.6620200
   9.1519640  66.2840080  79.1292760   9.8573430  50.5752920  79.1183700
   9.0745220  51.0498420  79.3980460   9.5636360  49.6707750  79.0096880
  14.4094500  51.2776020  77.1632790  14.8502590  51.2221120  76.3154390
  14.1402090  52.1934030  77.2342970  16.2733070  50.9091260  75.1741610
  16.2121470  49.9652480  75.0272630  17.0525100  51.0171350  75.7195070
   7.7427650  52.9939670  74.6299730   6.9302160  52.6196560  74.2895610
   8.2469290  52.2384750  74.9320920  12.2452630  49.6582120  75.8682800
  12.8482000  50.2302330  76.3431320  11.5045620  50.2221560  75.6456700
  15.3887230  50.0603680  71.1423080  15.5837860  50.9587130  71.4090510
  14.6017100  49.8290760  71.6356030   2.1848520  65.7416850  71.5815700
   1.6596140  66.1224880  70.8777660   2.1093100  66.3667620  72.3025410
   3.5738990  51.4064450  70.1799390   4.1031750  50.6194250  70.0507340
   4.2067310  52.0855640  70.4134920   5.7676830  51.1439590  73.2344780
   5.1379570  50.4426900  73.4014910   5.2281970  51.9043720  73.0177940
   8.7068780  67.7578820  85.9055390   9.6336090  67.5223090  85.9491350
   8.6919210  68.5850820  85.4241420  16.9413840  67.3004390  72.9029640
  17.1166030  66.6142130  72.2590560  16.2435410  67.8251440  72.5106310
   5.8932390  50.4223570  85.6697270   5.6116660  50.9257170  84.9058090
   6.2752090  49.6245320  85.3039400   4.7841490  67.6899230  70.4564950
   5.5160310  67.4058510  69.9088840   5.0435160  67.4512510  71.3464330
   3.9456280  63.8063960  70.4611280   3.3165160  64.2749060  71.0097110
   4.0604110  62.9613180  70.8957470  12.4947850  49.8377150  86.2477740
  12.3813300  50.1571760  87.1429260  13.3117590  50.2389660  85.9515020
  15.2746340  66.9848680  85.7296430  16.0671660  66.4897910  85.5222390
  15.5679490  67.6638820  86.3372040  11.4006000  57.8569620  56.6112480
  11.3200050  56.9424230  56.3404190  10.9870420  58.3536690  55.9052190
   9.5324040  59.6348640  58.4921750   8.7566140  59.1549080  58.7820320
  10.1836970  58.9554290  58.3177910   3.5489870  59.9468450  59.3697510
   2.7174750  59.6917160  59.7694020   4.1570850  60.0179220  60.1055430
  13.5531470  64.0408830  57.2720880  13.0913000  63.2696070  57.6008050
  14.3657020  64.0674900  57.7773330   3.5291130  63.9808540  59.5655530
   3.8319170  63.0906280  59.3865750   4.2734720  64.5378760  59.3377780
   9.7794780  66.3266840  56.8924870   9.1606220  66.7824340  56.3219310
  10.6346560  66.4818300  56.4914570   8.9733030  62.3105830  58.4991910
   8.9041310  61.3695770  58.3381040   9.7352890  62.4007240  59.0714480
  10.0038200  55.1176210  58.7260840  10.3803020  54.2448090  58.6134510
   9.9057710  55.4534910  57.8351280   4.1343210  53.4901840  54.1878280
   4.2409960  54.3905570  54.4947040   3.2235570  53.4419810  53.8972930
  13.7862320  52.6126650  55.6589180  14.6071940  52.1223220  55.7014660
  13.8196400  53.2024310  56.4121020   5.9750940  56.4588210  58.5203460
   6.4829160  56.9569180  59.1608480   6.5064180  55.6823410  58.3442820
  18.0761870  54.6293400  62.2232810  17.3714040  55.0175110  61.7047920
  18.3419790  55.3243690  62.8253740   4.2587040  51.0986770  62.7866880
   4.2605480  51.6159160  61.9812780   3.4291350  50.6216950  62.7636810
  10.6458130  61.2106080  54.2856780  10.0275400  61.6755530  53.7219500
  11.1581380  61.9033560  54.7026290   5.5089890  60.7381950  60.9640380
   5.1759270  61.3650870  61.6061450   5.6856570  61.2643830  60.1842050
  14.0223800  54.5527030  58.4316720  13.3179370  54.8411920  59.0119830
  14.3835960  55.3627140  58.0716280   3.9402370  52.8096730  60.7937330
   4.2819180  53.6538780  60.4991200   3.0018180  52.9580470  60.9102670
   4.7208990  62.7062750  62.7789560   5.3382990  63.3813830  62.4974010
   3.8602110  63.1150730  62.6877060  15.6386580  64.1702160  60.6944200
  14.9550100  64.8401270  60.6860870  16.1780870  64.3682810  59.9289060
  17.0910720  53.9981820  58.8225930  16.1435630  54.0320800  58.9541360
  17.4160710  54.8120770  59.2075290   7.6230260  50.2979000  57.1181920
   7.9305240  49.7425890  56.4017420   6.6930960  50.4323460  56.9354910
  13.1745320  66.0146290  59.4089380  13.1872480  65.6108580  58.5411640
  12.6220540  66.7893580  59.3050810  14.4690740  62.7362510  54.4979550
  14.3587070  61.7936840  54.6228970  14.4658990  63.0978150  55.3842310
  12.5730760  60.9176130  60.7371990  12.9899550  60.7036240  59.9025450
  13.2970580  61.1748920  61.3080610  10.0111020  58.3627830  53.8542040
   9.0840300  58.2965210  54.0830510  10.1635840  59.3007960  53.7397280
   9.9980100  54.6344830  50.8509200   9.0583770  54.7958790  50.9361660
  10.3163360  55.3530510  50.3045190  16.5192860  59.3163350  60.8288230
  15.6911490  59.3856440  60.3538360  17.1143340  59.9017660  60.3604060
  14.0408310  59.9248130  54.3577290  13.4220730  59.5867680  53.7103590
  14.0232760  59.2807890  55.0656480  13.4834870  56.1032670  61.7743100
  13.0706050  56.9286380  62.0283090  12.7510820  55.5177710  61.5819460
   5.6167660  58.8892570  56.6361770   5.2124660  58.1769820  56.1407670
   5.7030780  58.5445810  57.5249810   6.0849360  62.5760130  58.8000980
   5.7877650  61.9705600  58.1208760   7.0349180  62.6137440  58.6890340
   4.3296280  55.6635780  60.4160810   4.8810870  55.7731120  59.6414060
   4.8439790  56.0373380  61.1316040  14.1734970  66.1492000  62.4624080
  13.6965530  66.9564190  62.2696690  13.4896760  65.4970330  62.6150290
   5.1767790  62.3141820  65.4508780   4.2796320  62.5381790  65.6982180
   5.2020660  62.4376760  64.5020180  12.2173010  59.1634940  51.3650040
  12.6566290  58.3257370  51.2187860  12.9301430  59.7964340  51.4514180
   4.0039010  59.1855140  64.0266150   3.8646780  60.0577940  64.3953550
   3.1220370  58.8427950  63.8814090  10.3268390  64.1031010  55.3331280
  10.7664300  64.8455340  54.9186670  10.2655280  64.3457580  56.2570240
   5.8019360  65.1276840  66.2351300   5.7734790  65.5319790  65.3679730
   5.6384330  64.1987200  66.0722900  15.7990150  50.4177750  49.6791080
  15.4862810  50.5104580  50.5790150  16.5602620  50.9958780  49.6288510
   2.3172290  57.7837550  54.1368420   2.1969890  58.5099640  53.5249690
   2.0073180  57.0140460  53.6596330  17.7534180  65.9103940  67.5315470
  18.2293900  66.3886830  68.2104550  18.3741340  65.8421430  66.8060970
  17.1567430  63.1016790  64.6915480  17.2830490  62.8628670  63.7732660
  17.1988810  62.2701330  65.1637560  11.0184170  66.8044790  63.2610290
  11.5328840  66.7152800  64.0632720  10.1753250  67.1504490  63.5538200
  12.9938570  67.0900130  52.6894290  12.8339710  66.8003070  53.5876120
  12.8285280  66.3140260  52.1539520   5.4726950  66.8698660  54.4665910
   5.2969430  65.9534200  54.2533710   4.6182690  67.2285950  54.7063710
  12.6964700  64.5987690  51.2492290  12.0029860  64.5964980  50.5894570
  13.4387560  64.1747010  50.8186460  12.2614630  66.2250400  55.3240780
  12.7171580  65.4439780  55.6379400  12.6007150  66.9357220  55.8681960
  17.0091440  55.1549250  65.6565220  16.3935710  55.6628920  65.1280680
  16.6887860  54.2547580  65.5991160   4.7835950  51.1272620  57.5192090
   4.3404100  51.9082160  57.1876610   5.3420940  51.4502510  58.2263030
   9.0705760  53.9941140  63.1227410   8.6085130  54.2024160  63.9347350
   8.6683870  53.1800490  62.8198080  14.0710270  55.2150090  64.2524070
  13.2203860  54.9155840  64.5733140  13.9112060  55.4592100  63.3407890
  11.1659980  56.7151840  66.3522860  11.4913390  55.8815590  66.0125090
  11.9540310  57.2380360  66.5001190   7.8994770  50.7483320  52.3997920
   7.2748950  50.7443190  53.1251230   7.8124890  49.8814280  52.0033890
   6.8211850  51.6719950  59.3781690   7.1184180  52.5782780  59.2973710
   7.3697410  51.1838730  58.7641260   4.5750170  56.2506190  55.2473340
   4.3491090  56.0343360  56.1519960   3.7942700  56.6834650  54.9019310
  11.8047930  56.2569560  53.8463990  11.2056820  56.9805360  53.6627610
  12.3527540  56.1946340  53.0640440   7.0149380  57.1491770  65.9133610
   6.9192980  56.2086500  65.7634010   7.8581360  57.3706840  65.5181680
  10.4112800  54.8933100  55.8767270  10.8042370  55.2105300  55.0635960
  10.7729650  54.0144980  55.9911790   8.7204970  53.6440410  67.1364130
   8.0303290  53.4512610  67.7710220   9.4637270  53.9275050  67.6688430
  10.9967940  57.4838850  59.9718050  10.2649060  57.9925660  60.3208150
  10.5992280  56.6668830  59.6706830   7.4345330  54.1593050  58.3770540
   7.4381390  53.7183000  57.5275080   8.3296450  54.4810380  58.4842360
   3.2847710  54.0419540  57.3364750   2.9447760  54.5194770  58.0931800
   2.5225030  53.5884660  56.9765850   7.4965480  55.1605130  51.3677300
   7.6178300  55.1191610  52.3163120   7.1113990  56.0229280  51.2124030
  11.4593850  52.9372530  59.3840990  11.4766590  53.3881180  60.2282840
  11.2109430  52.0378170  59.5974430   6.5086980  57.4706270  50.7660600
   5.9403880  57.0224520  50.1396510   7.2175980  57.8299050  50.2325750
  14.8864600  50.3504710  65.2227370  15.2110370  49.6194370  65.7485350
  14.9221110  50.0318350  64.3208360   7.7353300  58.2194830  60.1235950
   8.1023430  57.7453400  60.8697290   7.5458360  59.0936400  60.4644290
   5.5252670  57.2603470  62.4420160   5.2209740  58.1395450  62.6670520
   6.4799130  57.3203260  62.4777600   4.0534460  61.4664460  53.0387010
   3.2796720  60.9262080  52.8785730   4.7829090  60.9471070  52.7004770
  14.8122440  60.4629820  58.8313400  15.5321560  60.9585110  58.4409510
  14.6104260  59.7847710  58.1867270  10.2732380  51.8567780  52.9742790
   9.4596990  51.3580950  52.8988100  10.0794330  52.6966030  52.5579140
  10.1941240  60.5338880  64.7182400  10.1278550  59.6134550  64.4639990
   9.5646380  60.6314320  65.4327040  12.9880770  56.2287430  51.2704950
  13.8760390  56.5404660  51.0956290  12.9585860  55.3559680  50.8785530
   4.0971860  61.1344840  56.6765820   4.6150530  60.3313100  56.6222710
   3.6455880  61.0723980  57.5182650   8.9841360  62.4011120  51.9493120
   9.3257060  63.1453350  51.4536440   8.1554070  62.7142240  52.3117950
   4.7829520  58.5590450  66.4731070   4.4829660  58.7047630  65.5758890
   5.5540760  57.9995740  66.3804460  10.1257970  63.3559450  64.4686200
  10.1402510  62.4240410  64.2505110   9.4183070  63.4419210  65.1075970
  15.2595040  57.5399270  50.7384810  15.1758760  57.9713490  49.8881250
  15.9789230  57.9997620  51.1711630  16.3369180  59.9966790  63.8154780
  15.6117370  60.5895570  63.6184170  16.8644640  59.9890330  63.0168150
  16.2882290  64.3941530  53.4666940  15.6458450  63.7397150  53.7410660
  15.9012950  64.7996620  52.6907610  11.8668770  61.7226960  57.3138630
  12.2192590  61.1255090  56.6540000  10.9831100  61.3971190  57.4846880
   7.9532050  62.4824650  54.7209040   8.6403180  63.0293860  55.1016630
   7.1664470  63.0265380  54.7558650   7.2559260  59.4870680  54.3334400
   7.7122040  60.2975930  54.5594590   6.9047470  59.1693820  55.1652890
   9.5591870  64.9977020  61.5626700  10.2034090  65.2036400  62.2400120
   9.9221310  64.2365420  61.1097550   3.1571040  49.8308330  54.8056920
   3.0285670  49.8226230  55.7541840   2.3333060  50.1691420  54.4547930
  10.8323950  63.0009370  60.2804150  11.4746180  62.3002530  60.3936320
  11.3573300  63.7807810  60.1001040  14.6779670  63.2857990  50.0043290
  14.4517250  62.5688430  50.5967930  14.2875870  63.0370430  49.1665040
  12.6061570  63.8004270  63.4840210  12.9417810  64.3870960  64.1618130
  11.6861910  63.6696980  63.7138000  14.2595920  61.2029930  51.6657450
  13.9717620  61.6642620  52.4535330  15.0548090  60.7427700  51.9341670
   8.4350150  63.8495600  66.6528270   8.1147020  63.1304840  67.1973960
   7.7608510  64.5250670  66.7264330   6.4764320  64.6956050  51.5961420
   6.4674420  65.4285740  50.9805930   5.5562680  64.4487630  51.6888380
  11.6503750  54.0821760  62.0165070  12.0184570  53.2616970  62.3444640
  10.7901950  54.1423650  62.4320720  15.0165780  53.0378700  52.8252630
  14.3878940  53.1424370  52.1110860  14.5217700  53.2575480  53.6146510
   9.4623920  64.7584290  50.2586610   9.5635900  64.5548280  49.3288590
   8.5625660  64.5042570  50.4634390   6.9849810  55.3164650  54.2410510
   6.2765960  55.7850990  54.6824120   7.2694290  54.6586660  54.8755700
   8.6105740  56.7361350  62.2403040   9.1090990  57.2107170  62.9054890
   8.7528690  55.8124870  62.4473070  11.0165240  52.0415310  55.6806300
  10.8933020  52.0601440  54.7315810  11.9649800  52.0894250  55.8004700
   8.1042030  67.2770610  54.9534280   8.3583530  67.2392000  54.0313650
   7.1554510  67.1503940  54.9462530   5.1884830  53.6249730  51.6161220
   6.0375360  54.0619880  51.5501410   4.8216100  53.9369990  52.4433280
  15.8172600  52.9529310  63.0831430  15.3146200  53.6934710  63.4225240
  16.6329260  53.3413310  62.7668220  14.1094610  58.1962490  56.5292790
  13.1684750  58.2112720  56.7040480  14.4238680  57.4098450  56.9753090
   4.0876250  59.8782090  50.0896750   4.8539520  59.7663450  50.6522180
   4.1650940  59.1820060  49.4373520   2.7823010  57.3107160  50.7729640
   2.8626600  56.3634670  50.8847040   3.6742760  57.6414040  50.8790300
  16.1120190  65.3671340  58.2047050  16.2367610  66.1902510  58.6770860
  16.9785750  65.1562070  57.8571200   3.5837720  67.4602550  57.8764180
   4.3200200  66.9118010  58.1472750   3.9678640  68.3258560  57.7370170
   2.5896000  66.6448620  67.0649760   3.3908730  66.9660670  67.4785160
   2.0747820  66.2844200  67.7869670   6.6940030  66.6332860  49.6989750
   7.4868640  66.9221690  49.2471540   6.1744380  66.2025030  49.0202230
  11.4260630  62.7528490  67.0125170  10.8198790  62.7760090  66.2720920
  11.1214740  62.0211530  67.5492420  12.8561000  66.4808780  65.6234580
  13.8082750  66.3966800  65.5734820  12.7089220  67.1450490  66.2968370
  15.7470200  65.8602990  51.1226490  15.4611710  65.4468130  50.3080670
  15.5489750  66.7890700  51.0027010   7.2117430  61.8536270  49.5632100
   7.1068070  61.2388620  50.2893480   7.0441650  61.3302160  48.7795110
   7.3631750  60.5393070  65.5421330   6.5977420  61.1078070  65.4576000
   7.5447710  60.2469280  64.6489560  10.4520160  60.9156300  50.1674090
   9.9030260  61.3625600  50.8116830  11.0739420  60.4105550  50.6911760
  14.5055100  62.2698400  66.0996350  15.2464570  62.6074160  65.5963810
  13.7427780  62.4390460  65.5466120   2.3416890  57.2751670  66.9035880
   2.3822230  56.9765540  67.8121110   3.1962390  57.6759280  66.7443400
   6.1195280  59.8747220  52.0639390   6.5411700  59.7087090  52.9070780
   6.2446120  59.0647450  51.5694530   4.2822700  55.8543770  64.8710370
   3.7519160  55.3634720  64.2433710   4.9510770  56.2827970  64.3368300
   8.6322920  58.8984830  49.3116490   9.1528580  58.1833850  48.9457640
   9.2791320  59.5370700  49.6117000  13.1800760  60.3213230  64.6351560
  13.5941780  60.4758310  65.4841980  12.2451760  60.4468450  64.7977340
  13.6522930  57.6609390  66.6390710  14.2343700  56.9061710  66.5511190
  13.8284700  58.1916830  65.8622190   4.7695000  52.8206140  64.9507660
   4.6751870  52.2026890  64.2258530   4.1892390  53.5472430  64.7237570
   7.5356440  51.3779380  61.9835050   7.0873740  51.4003640  61.1380600
   6.9021640  50.9798400  62.5805350   7.9415990  60.2733710  62.6047490
   8.3604100  61.1166440  62.4323730   7.0224620  60.4105750  62.3754270
  10.2779890  58.0049890  63.9885330  10.3976100  57.4091030  64.7280170
  11.1373890  58.0419580  63.5686630  12.6167790  58.5587080  62.5647840
  12.0903010  59.0829700  61.9612980  12.9599130  59.1914470  63.1957570
   5.0154180  55.9480450  49.0097550   4.8143240  55.0847810  49.3710890
   4.8446230  55.8613810  48.0719150   5.7923410  66.5786720  63.7205220
   5.2544500  67.3032780  63.4013920   6.0457370  66.1017060  62.9302560
   7.0448660  54.5471240  65.2461150   7.6348350  54.2387090  65.9338970
   6.2268900  54.0750990  65.4021050  11.8642090  54.1637050  65.4794170
  11.1757610  53.5018590  65.4144160  12.5848110  53.7175320  65.9242630
  12.4942490  50.7588680  51.5384430  12.7744780  49.9156580  51.8943850
  11.7208220  50.9911790  52.0523180   3.8136980  53.0481070  48.9975430
   4.1162880  53.0548500  48.0894580   4.5531570  52.6978930  49.4943090
   8.6485620  67.8137930  63.9791870   8.5744320  68.7173070  64.2864240
   7.7464460  67.4949830  63.9513940   7.0321910  51.9915690  49.9831630
   6.6843910  51.3139680  49.4034080   7.2334680  51.5305200  50.7975020
   9.1970950  66.9796440  51.6018230  10.0921740  67.3181410  51.6236990
   9.2288580  66.2575850  50.9742510   2.8367110  62.3523490  49.8305230
   3.2741980  62.8953160  50.4862810   3.3214840  61.5270440  49.8401570
   4.6474830  63.4721530  54.9427460   4.3470370  63.3486500  55.8431370
   4.5412320  62.6130120  54.5343190  16.1765300  65.5100110  64.3084430
  15.5767290  65.5692670  63.5648350  16.3059200  64.5705090  64.4381280
  17.4166750  63.2517930  49.6454140  16.5859710  63.3194580  50.1161370
  17.5938580  64.1422050  49.3421000  16.8723210  59.9965410  52.1488340
  17.6342120  60.5662060  52.2548030  16.8877580  59.4292610  52.9196650
  17.8783180  60.8515510  56.9930270  18.2492010  60.0682830  56.5866240
  18.5185110  61.5404610  56.8147570  14.8616940  62.2352090  62.4060590
  14.0476780  62.6649250  62.6686380  15.2691140  62.8470500  61.7929640
  16.9242380  60.2899780  49.3060860  17.1991220  61.1978660  49.1780080
  16.7353120  60.2262310  50.2422850  13.3217990  53.3144630  50.6014490
  13.7402870  53.1275610  49.7611150  13.0154050  52.4623680  50.9117420
  16.8207720  58.2268770  54.2990290  16.4451320  57.4596700  53.8671580
  16.0910840  58.6091470  54.7865220  16.2107340  57.3740290  63.9329810
  15.9793430  57.1453040  63.0327760  16.4711890  58.2939840  63.8874700
  14.6495410  52.5996720  66.7109510  15.5265590  52.6080120  67.0943510
  14.6616250  51.8627560  66.1001860  16.0958680  56.4526260  57.5997530
  16.6196160  55.9588910  56.9687700  16.6818100  56.5876620  58.3445100
  16.2748400  56.5366130  61.1217080  15.3251110  56.5029670  61.2362070
  16.4561410  57.4466240  60.8866850   1.7767000  50.8407140  49.2718360
   2.4995130  51.3816080  49.5899580   2.0491520  50.5670560  48.3959900
  15.5858650  55.7099610  53.5389940  16.0817770  55.4770480  54.3238820
  15.3874720  54.8711450  53.1227580  17.0145810  54.3460560  56.0727620
  16.9045090  54.1916600  57.0109890  17.7753400  53.8181500  55.8303030
  15.3611530  50.2854690  62.5310620  15.9983750  50.8988830  62.8969810
  15.5086420  50.3215350  61.5859850  17.9036080  52.1768480  49.3133760
  18.8285390  52.0449660  49.1052050  17.8811870  52.2561300  50.2670210
  17.9774570  52.9479140  51.9390470  17.1826070  52.8824260  52.4683380
  18.1817850  53.8829780  51.9275820  14.9192990  66.9870690  55.9328860
  15.5152060  66.6655260  55.2563280  15.1771140  66.5142510  56.7242130
   2.8255560  63.4188600  66.0819490   2.7825190  63.0481510  66.9633950
   2.9566570  64.3566170  66.2221310   6.5261590  64.9748190  61.6829210
   6.2852950  65.2422750  60.7959730   7.4664230  65.1453920  61.7380070
   8.7316010  51.4380880  65.4385720   8.6704900  52.0302710  66.1881130
   9.6716390  51.3306840  65.2935980  11.3690570  51.0950940  65.0778010
  11.9830980  51.4130230  64.4159090  11.9140130  50.6099530  65.6973870
  17.7865750  66.9942570  62.4839850  17.2924030  67.3911440  61.7666980
  17.1779040  66.3691780  62.8777130   1.8911830  49.7745200  65.1917070
   2.4394820  49.5933250  64.4283180   1.9567140  48.9839310  65.7273380
   2.6643590  66.3650850  63.2017270   2.0703910  66.2335550  63.9407310
   2.6567430  65.5288990  62.7359370  12.1098610  49.6583080  61.4047300
  11.2358450  49.9918190  61.2020230  12.0009360  49.1856260  62.2299170
  13.0170590  51.8653950  62.7889020  12.6883950  51.0505710  62.4090750
  13.9652890  51.8223760  62.6654710  15.4705200  67.6365990  59.7626590
  15.0108170  68.3881800  59.3884610  14.8417660  66.9172460  59.7041390
   5.9000920  65.9454230  58.9374720   6.4165940  65.3341590  58.4122980
   6.5498300  66.4483010  59.4285730   8.6396420  66.8362720  59.7643700
   8.9274230  66.5817020  58.8876710   9.1519640  66.2840080  60.3549270
   9.8573430  50.5752920  60.3440210   9.0745220  51.0498420  60.6236970
   9.5636360  49.6707750  60.2353390  14.4094500  51.2776020  58.3889300
  14.8502590  51.2221120  57.5410900  14.1402090  52.1934030  58.4599480
  16.2733070  50.9091260  56.3998120  16.2121470  49.9652480  56.2529140
  17.0525100  51.0171350  56.9451580   7.7427650  52.9939670  55.8556240
   6.9302160  52.6196560  55.5152120   8.2469290  52.2384750  56.1577430
  12.2452630  49.6582120  57.0939310  12.8482000  50.2302330  57.5687830
  11.5045620  50.2221560  56.8713210  15.3887230  50.0603680  52.3679590
  15.5837860  50.9587130  52.6347020  14.6017100  49.8290760  52.8612540
   2.1848520  65.7416850  52.8072210   1.6596140  66.1224880  52.1034170
   2.1093100  66.3667620  53.5281920   3.5738990  51.4064450  51.4055900
   4.1031750  50.6194250  51.2763850   4.2067310  52.0855640  51.6391430
   5.7676830  51.1439590  54.4601290   5.1379570  50.4426900  54.6271420
   5.2281970  51.9043720  54.2434450   8.7068780  67.7578820  67.1311900
   9.6336090  67.5223090  67.1747860   8.6919210  68.5850820  66.6497930
  16.9413840  67.3004390  54.1286150  17.1166030  66.6142130  53.4847070
  16.2435410  67.8251440  53.7362820   5.8932390  50.4223570  66.8953780
   5.6116660  50.9257170  66.1314600   6.2752090  49.6245320  66.5295910
   4.7841490  67.6899230  51.6821460   5.5160310  67.4058510  51.1345350
   5.0435160  67.4512510  52.5720840   3.9456280  63.8063960  51.6867790
   3.3165160  64.2749060  52.2353620   4.0604110  62.9613180  52.1213980
  12.4947850  49.8377150  67.4734250  12.3813300  50.1571760  68.3685770
  13.3117590  50.2389660  67.1771530  15.2746340  66.9848680  66.9552940
  16.0671660  66.4897910  66.7478900  15.5679490  67.6638820  67.5628550
  11.4006000  57.8569620  37.8368990  11.3200050  56.9424230  37.5660700
  10.9870420  58.3536690  37.1308700   9.5324040  59.6348640  39.7178260
   8.7566140  59.1549080  40.0076830  10.1836970  58.9554290  39.5434420
   3.5489870  59.9468450  40.5954020   2.7174750  59.6917160  40.9950530
   4.1570850  60.0179220  41.3311940  13.5531470  64.0408830  38.4977390
  13.0913000  63.2696070  38.8264560  14.3657020  64.0674900  39.0029840
   3.5291130  63.9808540  40.7912040   3.8319170  63.0906280  40.6122260
   4.2734720  64.5378760  40.5634290   9.7794780  66.3266840  38.1181380
   9.1606220  66.7824340  37.5475820  10.6346560  66.4818300  37.7171080
   8.9733030  62.3105830  39.7248420   8.9041310  61.3695770  39.5637550
   9.7352890  62.4007240  40.2970990  10.0038200  55.1176210  39.9517350
  10.3803020  54.2448090  39.8391020   9.9057710  55.4534910  39.0607790
   4.1343210  53.4901840  35.4134790   4.2409960  54.3905570  35.7203550
   3.2235570  53.4419810  35.1229440  13.7862320  52.6126650  36.8845690
  14.6071940  52.1223220  36.9271170  13.8196400  53.2024310  37.6377530
   5.9750940  56.4588210  39.7459970   6.4829160  56.9569180  40.3864990
   6.5064180  55.6823410  39.5699330  18.0761870  54.6293400  43.4489320
  17.3714040  55.0175110  42.9304430  18.3419790  55.3243690  44.0510250
   4.2587040  51.0986770  44.0123390   4.2605480  51.6159160  43.2069290
   3.4291350  50.6216950  43.9893320  10.6458130  61.2106080  35.5113290
  10.0275400  61.6755530  34.9476010  11.1581380  61.9033560  35.9282800
   5.5089890  60.7381950  42.1896890   5.1759270  61.3650870  42.8317960
   5.6856570  61.2643830  41.4098560  14.0223800  54.5527030  39.6573230
  13.3179370  54.8411920  40.2376340  14.3835960  55.3627140  39.2972790
   3.9402370  52.8096730  42.0193840   4.2819180  53.6538780  41.7247710
   3.0018180  52.9580470  42.1359180   4.7208990  62.7062750  44.0046070
   5.3382990  63.3813830  43.7230520   3.8602110  63.1150730  43.9133570
  15.6386580  64.1702160  41.9200710  14.9550100  64.8401270  41.9117380
  16.1780870  64.3682810  41.1545570  17.0910720  53.9981820  40.0482440
  16.1435630  54.0320800  40.1797870  17.4160710  54.8120770  40.4331800
   7.6230260  50.2979000  38.3438430   7.9305240  49.7425890  37.6273930
   6.6930960  50.4323460  38.1611420  13.1745320  66.0146290  40.6345890
  13.1872480  65.6108580  39.7668150  12.6220540  66.7893580  40.5307320
  14.4690740  62.7362510  35.7236060  14.3587070  61.7936840  35.8485480
  14.4658990  63.0978150  36.6098820  12.5730760  60.9176130  41.9628500
  12.9899550  60.7036240  41.1281960  13.2970580  61.1748920  42.5337120
  10.0111020  58.3627830  35.0798550   9.0840300  58.2965210  35.3087020
  10.1635840  59.3007960  34.9653790   9.9980100  54.6344830  32.0765710
   9.0583770  54.7958790  32.1618170  10.3163360  55.3530510  31.5301700
  16.5192860  59.3163350  42.0544740  15.6911490  59.3856440  41.5794870
  17.1143340  59.9017660  41.5860570  14.0408310  59.9248130  35.5833800
  13.4220730  59.5867680  34.9360100  14.0232760  59.2807890  36.2912990
  13.4834870  56.1032670  42.9999610  13.0706050  56.9286380  43.2539600
  12.7510820  55.5177710  42.8075970   5.6167660  58.8892570  37.8618280
   5.2124660  58.1769820  37.3664180   5.7030780  58.5445810  38.7506320
   6.0849360  62.5760130  40.0257490   5.7877650  61.9705600  39.3465270
   7.0349180  62.6137440  39.9146850   4.3296280  55.6635780  41.6417320
   4.8810870  55.7731120  40.8670570   4.8439790  56.0373380  42.3572550
  14.1734970  66.1492000  43.6880590  13.6965530  66.9564190  43.4953200
  13.4896760  65.4970330  43.8406800   5.1767790  62.3141820  46.6765290
   4.2796320  62.5381790  46.9238690   5.2020660  62.4376760  45.7276690
  12.2173010  59.1634940  32.5906550  12.6566290  58.3257370  32.4444370
  12.9301430  59.7964340  32.6770690   4.0039010  59.1855140  45.2522660
   3.8646780  60.0577940  45.6210060   3.1220370  58.8427950  45.1070600
  10.3268390  64.1031010  36.5587790  10.7664300  64.8455340  36.1443180
  10.2655280  64.3457580  37.4826750   5.8019360  65.1276840  47.4607810
   5.7734790  65.5319790  46.5936240   5.6384330  64.1987200  47.2979410
  15.7990150  50.4177750  30.9047590  15.4862810  50.5104580  31.8046660
  16.5602620  50.9958780  30.8545020   2.3172290  57.7837550  35.3624930
   2.1969890  58.5099640  34.7506200   2.0073180  57.0140460  34.8852840
  17.7534180  65.9103940  48.7571980  18.2293900  66.3886830  49.4361060
  18.3741340  65.8421430  48.0317480  17.1567430  63.1016790  45.9171990
  17.2830490  62.8628670  44.9989170  17.1988810  62.2701330  46.3894070
  11.0184170  66.8044790  44.4866800  11.5328840  66.7152800  45.2889230
  10.1753250  67.1504490  44.7794710  12.9938570  67.0900130  33.9150800
  12.8339710  66.8003070  34.8132630  12.8285280  66.3140260  33.3796030
   5.4726950  66.8698660  35.6922420   5.2969430  65.9534200  35.4790220
   4.6182690  67.2285950  35.9320220  12.6964700  64.5987690  32.4748800
  12.0029860  64.5964980  31.8151080  13.4387560  64.1747010  32.0442970
  12.2614630  66.2250400  36.5497290  12.7171580  65.4439780  36.8635910
  12.6007150  66.9357220  37.0938470  17.0091440  55.1549250  46.8821730
  16.3935710  55.6628920  46.3537190  16.6887860  54.2547580  46.8247670
   4.7835950  51.1272620  38.7448600   4.3404100  51.9082160  38.4133120
   5.3420940  51.4502510  39.4519540   9.0705760  53.9941140  44.3483920
   8.6085130  54.2024160  45.1603860   8.6683870  53.1800490  44.0454590
  14.0710270  55.2150090  45.4780580  13.2203860  54.9155840  45.7989650
  13.9112060  55.4592100  44.5664400  11.1659980  56.7151840  47.5779370
  11.4913390  55.8815590  47.2381600  11.9540310  57.2380360  47.7257700
   7.8994770  50.7483320  33.6254430   7.2748950  50.7443190  34.3507740
   7.8124890  49.8814280  33.2290400   6.8211850  51.6719950  40.6038200
   7.1184180  52.5782780  40.5230220   7.3697410  51.1838730  39.9897770
   4.5750170  56.2506190  36.4729850   4.3491090  56.0343360  37.3776470
   3.7942700  56.6834650  36.1275820  11.8047930  56.2569560  35.0720500
  11.2056820  56.9805360  34.8884120  12.3527540  56.1946340  34.2896950
   7.0149380  57.1491770  47.1390120   6.9192980  56.2086500  46.9890520
   7.8581360  57.3706840  46.7438190  10.4112800  54.8933100  37.1023780
  10.8042370  55.2105300  36.2892470  10.7729650  54.0144980  37.2168300
   8.7204970  53.6440410  48.3620640   8.0303290  53.4512610  48.9966730
   9.4637270  53.9275050  48.8944940  10.9967940  57.4838850  41.1974560
  10.2649060  57.9925660  41.5464660  10.5992280  56.6668830  40.8963340
   7.4345330  54.1593050  39.6027050   7.4381390  53.7183000  38.7531590
   8.3296450  54.4810380  39.7098870   3.2847710  54.0419540  38.5621260
   2.9447760  54.5194770  39.3188310   2.5225030  53.5884660  38.2022360
   7.4965480  55.1605130  32.5933810   7.6178300  55.1191610  33.5419630
   7.1113990  56.0229280  32.4380540  11.4593850  52.9372530  40.6097500
  11.4766590  53.3881180  41.4539350  11.2109430  52.0378170  40.8230940
   6.5086980  57.4706270  31.9917110   5.9403880  57.0224520  31.3653020
   7.2175980  57.8299050  31.4582260  14.8864600  50.3504710  46.4483880
  15.2110370  49.6194370  46.9741860  14.9221110  50.0318350  45.5464870
   7.7353300  58.2194830  41.3492460   8.1023430  57.7453400  42.0953800
   7.5458360  59.0936400  41.6900800   5.5252670  57.2603470  43.6676670
   5.2209740  58.1395450  43.8927030   6.4799130  57.3203260  43.7034110
   4.0534460  61.4664460  34.2643520   3.2796720  60.9262080  34.1042240
   4.7829090  60.9471070  33.9261280  14.8122440  60.4629820  40.0569910
  15.5321560  60.9585110  39.6666020  14.6104260  59.7847710  39.4123780
  10.2732380  51.8567780  34.1999300   9.4596990  51.3580950  34.1244610
  10.0794330  52.6966030  33.7835650  10.1941240  60.5338880  45.9438910
  10.1278550  59.6134550  45.6896500   9.5646380  60.6314320  46.6583550
  12.9880770  56.2287430  32.4961460  13.8760390  56.5404660  32.3212800
  12.9585860  55.3559680  32.1042040   4.0971860  61.1344840  37.9022330
   4.6150530  60.3313100  37.8479220   3.6455880  61.0723980  38.7439160
   8.9841360  62.4011120  33.1749630   9.3257060  63.1453350  32.6792950
   8.1554070  62.7142240  33.5374460   4.7829520  58.5590450  47.6987580
   4.4829660  58.7047630  46.8015400   5.5540760  57.9995740  47.6060970
  10.1257970  63.3559450  45.6942710  10.1402510  62.4240410  45.4761620
   9.4183070  63.4419210  46.3332480  15.2595040  57.5399270  31.9641320
  15.1758760  57.9713490  31.1137760  15.9789230  57.9997620  32.3968140
  16.3369180  59.9966790  45.0411290  15.6117370  60.5895570  44.8440680
  16.8644640  59.9890330  44.2424660  16.2882290  64.3941530  34.6923450
  15.6458450  63.7397150  34.9667170  15.9012950  64.7996620  33.9164120
  11.8668770  61.7226960  38.5395140  12.2192590  61.1255090  37.8796510
  10.9831100  61.3971190  38.7103390   7.9532050  62.4824650  35.9465550
   8.6403180  63.0293860  36.3273140   7.1664470  63.0265380  35.9815160
   7.2559260  59.4870680  35.5590910   7.7122040  60.2975930  35.7851100
   6.9047470  59.1693820  36.3909400   9.5591870  64.9977020  42.7883210
  10.2034090  65.2036400  43.4656630   9.9221310  64.2365420  42.3354060
   3.1571040  49.8308330  36.0313430   3.0285670  49.8226230  36.9798350
   2.3333060  50.1691420  35.6804440  10.8323950  63.0009370  41.5060660
  11.4746180  62.3002530  41.6192830  11.3573300  63.7807810  41.3257550
  14.6779670  63.2857990  31.2299800  14.4517250  62.5688430  31.8224440
  14.2875870  63.0370430  30.3921550  12.6061570  63.8004270  44.7096720
  12.9417810  64.3870960  45.3874640  11.6861910  63.6696980  44.9394510
  14.2595920  61.2029930  32.8913960  13.9717620  61.6642620  33.6791840
  15.0548090  60.7427700  33.1598180   8.4350150  63.8495600  47.8784780
   8.1147020  63.1304840  48.4230470   7.7608510  64.5250670  47.9520840
   6.4764320  64.6956050  32.8217930   6.4674420  65.4285740  32.2062440
   5.5562680  64.4487630  32.9144890  11.6503750  54.0821760  43.2421580
  12.0184570  53.2616970  43.5701150  10.7901950  54.1423650  43.6577230
  15.0165780  53.0378700  34.0509140  14.3878940  53.1424370  33.3367370
  14.5217700  53.2575480  34.8403020   9.4623920  64.7584290  31.4843120
   9.5635900  64.5548280  30.5545100   8.5625660  64.5042570  31.6890900
   6.9849810  55.3164650  35.4667020   6.2765960  55.7850990  35.9080630
   7.2694290  54.6586660  36.1012210   8.6105740  56.7361350  43.4659550
   9.1090990  57.2107170  44.1311400   8.7528690  55.8124870  43.6729580
  11.0165240  52.0415310  36.9062810  10.8933020  52.0601440  35.9572320
  11.9649800  52.0894250  37.0261210   8.1042030  67.2770610  36.1790790
   8.3583530  67.2392000  35.2570160   7.1554510  67.1503940  36.1719040
   5.1884830  53.6249730  32.8417730   6.0375360  54.0619880  32.7757920
   4.8216100  53.9369990  33.6689790  15.8172600  52.9529310  44.3087940
  15.3146200  53.6934710  44.6481750  16.6329260  53.3413310  43.9924730
  14.1094610  58.1962490  37.7549300  13.1684750  58.2112720  37.9296990
  14.4238680  57.4098450  38.2009600   4.0876250  59.8782090  31.3153260
   4.8539520  59.7663450  31.8778690   4.1650940  59.1820060  30.6630030
   2.7823010  57.3107160  31.9986150   2.8626600  56.3634670  32.1103550
   3.6742760  57.6414040  32.1046810  16.1120190  65.3671340  39.4303560
  16.2367610  66.1902510  39.9027370  16.9785750  65.1562070  39.0827710
   3.5837720  67.4602550  39.1020690   4.3200200  66.9118010  39.3729260
   3.9678640  68.3258560  38.9626680   2.5896000  66.6448620  48.2906270
   3.3908730  66.9660670  48.7041670   2.0747820  66.2844200  49.0126180
   6.6940030  66.6332860  30.9246260   7.4868640  66.9221690  30.4728050
   6.1744380  66.2025030  30.2458740  11.4260630  62.7528490  48.2381680
  10.8198790  62.7760090  47.4977430  11.1214740  62.0211530  48.7748930
  12.8561000  66.4808780  46.8491090  13.8082750  66.3966800  46.7991330
  12.7089220  67.1450490  47.5224880  15.7470200  65.8602990  32.3483000
  15.4611710  65.4468130  31.5337180  15.5489750  66.7890700  32.2283520
   7.2117430  61.8536270  30.7888610   7.1068070  61.2388620  31.5149990
   7.0441650  61.3302160  30.0051620   7.3631750  60.5393070  46.7677840
   6.5977420  61.1078070  46.6832510   7.5447710  60.2469280  45.8746070
  10.4520160  60.9156300  31.3930600   9.9030260  61.3625600  32.0373340
  11.0739420  60.4105550  31.9168270  14.5055100  62.2698400  47.3252860
  15.2464570  62.6074160  46.8220320  13.7427780  62.4390460  46.7722630
   2.3416890  57.2751670  48.1292390   2.3822230  56.9765540  49.0377620
   3.1962390  57.6759280  47.9699910   6.1195280  59.8747220  33.2895900
   6.5411700  59.7087090  34.1327290   6.2446120  59.0647450  32.7951040
   4.2822700  55.8543770  46.0966880   3.7519160  55.3634720  45.4690220
   4.9510770  56.2827970  45.5624810   8.6322920  58.8984830  30.5373000
   9.1528580  58.1833850  30.1714150   9.2791320  59.5370700  30.8373510
  13.1800760  60.3213230  45.8608070  13.5941780  60.4758310  46.7098490
  12.2451760  60.4468450  46.0233850  13.6522930  57.6609390  47.8647220
  14.2343700  56.9061710  47.7767700  13.8284700  58.1916830  47.0878700
   4.7695000  52.8206140  46.1764170   4.6751870  52.2026890  45.4515040
   4.1892390  53.5472430  45.9494080   7.5356440  51.3779380  43.2091560
   7.0873740  51.4003640  42.3637110   6.9021640  50.9798400  43.8061860
   7.9415990  60.2733710  43.8304000   8.3604100  61.1166440  43.6580240
   7.0224620  60.4105750  43.6010780  10.2779890  58.0049890  45.2141840
  10.3976100  57.4091030  45.9536680  11.1373890  58.0419580  44.7943140
  12.6167790  58.5587080  43.7904350  12.0903010  59.0829700  43.1869490
  12.9599130  59.1914470  44.4214080   5.0154180  55.9480450  30.2354060
   4.8143240  55.0847810  30.5967400   4.8446230  55.8613810  29.2975660
   5.7923410  66.5786720  44.9461730   5.2544500  67.3032780  44.6270430
   6.0457370  66.1017060  44.1559070   7.0448660  54.5471240  46.4717660
   7.6348350  54.2387090  47.1595480   6.2268900  54.0750990  46.6277560
  11.8642090  54.1637050  46.7050680  11.1757610  53.5018590  46.6400670
  12.5848110  53.7175320  47.1499140  12.4942490  50.7588680  32.7640940
  12.7744780  49.9156580  33.1200360  11.7208220  50.9911790  33.2779690
   3.8136980  53.0481070  30.2231940   4.1162880  53.0548500  29.3151090
   4.5531570  52.6978930  30.7199600   8.6485620  67.8137930  45.2048380
   8.5744320  68.7173070  45.5120750   7.7464460  67.4949830  45.1770450
   7.0321910  51.9915690  31.2088140   6.6843910  51.3139680  30.6290590
   7.2334680  51.5305200  32.0231530   9.1970950  66.9796440  32.8274740
  10.0921740  67.3181410  32.8493500   9.2288580  66.2575850  32.1999020
   2.8367110  62.3523490  31.0561740   3.2741980  62.8953160  31.7119320
   3.3214840  61.5270440  31.0658080   4.6474830  63.4721530  36.1683970
   4.3470370  63.3486500  37.0687880   4.5412320  62.6130120  35.7599700
  16.1765300  65.5100110  45.5340940  15.5767290  65.5692670  44.7904860
  16.3059200  64.5705090  45.6637790  17.4166750  63.2517930  30.8710650
  16.5859710  63.3194580  31.3417880  17.5938580  64.1422050  30.5677510
  16.8723210  59.9965410  33.3744850  17.6342120  60.5662060  33.4804540
  16.8877580  59.4292610  34.1453160  17.8783180  60.8515510  38.2186780
  18.2492010  60.0682830  37.8122750  18.5185110  61.5404610  38.0404080
  14.8616940  62.2352090  43.6317100  14.0476780  62.6649250  43.8942890
  15.2691140  62.8470500  43.0186150  16.9242380  60.2899780  30.5317370
  17.1991220  61.1978660  30.4036590  16.7353120  60.2262310  31.4679360
  13.3217990  53.3144630  31.8271000  13.7402870  53.1275610  30.9867660
  13.0154050  52.4623680  32.1373930  16.8207720  58.2268770  35.5246800
  16.4451320  57.4596700  35.0928090  16.0910840  58.6091470  36.0121730
  16.2107340  57.3740290  45.1586320  15.9793430  57.1453040  44.2584270
  16.4711890  58.2939840  45.1131210  14.6495410  52.5996720  47.9366020
  15.5265590  52.6080120  48.3200020  14.6616250  51.8627560  47.3258370
  16.0958680  56.4526260  38.8254040  16.6196160  55.9588910  38.1944210
  16.6818100  56.5876620  39.5701610  16.2748400  56.5366130  42.3473590
  15.3251110  56.5029670  42.4618580  16.4561410  57.4466240  42.1123360
   1.7767000  50.8407140  30.4974870   2.4995130  51.3816080  30.8156090
   2.0491520  50.5670560  29.6216410  15.5858650  55.7099610  34.7646450
  16.0817770  55.4770480  35.5495330  15.3874720  54.8711450  34.3484090
  17.0145810  54.3460560  37.2984130  16.9045090  54.1916600  38.2366400
  17.7753400  53.8181500  37.0559540  15.3611530  50.2854690  43.7567130
  15.9983750  50.8988830  44.1226320  15.5086420  50.3215350  42.8116360
  17.9036080  52.1768480  30.5390270  18.8285390  52.0449660  30.3308560
  17.8811870  52.2561300  31.4926720  17.9774570  52.9479140  33.1646980
  17.1826070  52.8824260  33.6939890  18.1817850  53.8829780  33.1532330
  14.9192990  66.9870690  37.1585370  15.5152060  66.6655260  36.4819790
  15.1771140  66.5142510  37.9498640   2.8255560  63.4188600  47.3076000
   2.7825190  63.0481510  48.1890460   2.9566570  64.3566170  47.4477820
   6.5261590  64.9748190  42.9085720   6.2852950  65.2422750  42.0216240
   7.4664230  65.1453920  42.9636580   8.7316010  51.4380880  46.6642230
   8.6704900  52.0302710  47.4137640   9.6716390  51.3306840  46.5192490
  11.3690570  51.0950940  46.3034520  11.9830980  51.4130230  45.6415600
  11.9140130  50.6099530  46.9230380  17.7865750  66.9942570  43.7096360
  17.2924030  67.3911440  42.9923490  17.1779040  66.3691780  44.1033640
   1.8911830  49.7745200  46.4173580   2.4394820  49.5933250  45.6539690
   1.9567140  48.9839310  46.9529890   2.6643590  66.3650850  44.4273780
   2.0703910  66.2335550  45.1663820   2.6567430  65.5288990  43.9615880
  12.1098610  49.6583080  42.6303810  11.2358450  49.9918190  42.4276740
  12.0009360  49.1856260  43.4555680  13.0170590  51.8653950  44.0145530
  12.6883950  51.0505710  43.6347260  13.9652890  51.8223760  43.8911220
  15.4705200  67.6365990  40.9883100  15.0108170  68.3881800  40.6141120
  14.8417660  66.9172460  40.9297900   5.9000920  65.9454230  40.1631230
   6.4165940  65.3341590  39.6379490   6.5498300  66.4483010  40.6542240
   8.6396420  66.8362720  40.9900210   8.9274230  66.5817020  40.1133220
   9.1519640  66.2840080  41.5805780   9.8573430  50.5752920  41.5696720
   9.0745220  51.0498420  41.8493480   9.5636360  49.6707750  41.4609900
  14.4094500  51.2776020  39.6145810  14.8502590  51.2221120  38.7667410
  14.1402090  52.1934030  39.6855990  16.2733070  50.9091260  37.6254630
  16.2121470  49.9652480  37.4785650  17.0525100  51.0171350  38.1708090
   7.7427650  52.9939670  37.0812750   6.9302160  52.6196560  36.7408630
   8.2469290  52.2384750  37.3833940  12.2452630  49.6582120  38.3195820
  12.8482000  50.2302330  38.7944340  11.5045620  50.2221560  38.0969720
  15.3887230  50.0603680  33.5936100  15.5837860  50.9587130  33.8603530
  14.6017100  49.8290760  34.0869050   2.1848520  65.7416850  34.0328720
   1.6596140  66.1224880  33.3290680   2.1093100  66.3667620  34.7538430
   3.5738990  51.4064450  32.6312410   4.1031750  50.6194250  32.5020360
   4.2067310  52.0855640  32.8647940   5.7676830  51.1439590  35.6857800
   5.1379570  50.4426900  35.8527930   5.2281970  51.9043720  35.4690960
   8.7068780  67.7578820  48.3568410   9.6336090  67.5223090  48.4004370
   8.6919210  68.5850820  47.8754440  16.9413840  67.3004390  35.3542660
  17.1166030  66.6142130  34.7103580  16.2435410  67.8251440  34.9619330
   4.7841490  67.6899230  32.9077970   5.5160310  67.4058510  32.3601860
   5.0435160  67.4512510  33.7977350   3.9456280  63.8063960  32.9124300
   3.3165160  64.2749060  33.4610130   4.0604110  62.9613180  33.3470490
  12.4947850  49.8377150  48.6990760  12.3813300  50.1571760  49.5942280
  13.3117590  50.2389660  48.4028040  15.2746340  66.9848680  48.1809450
  16.0671660  66.4897910  47.9735410  15.5679490  67.6638820  48.7885060
  11.4006000  57.8569620  19.0625500  11.3200050  56.9424230  18.7917210
  10.9870420  58.3536690  18.3565210   9.5324040  59.6348640  20.9434770
   8.7566140  59.1549080  21.2333340  10.1836970  58.9554290  20.7690930
   3.5489870  59.9468450  21.8210530   2.7174750  59.6917160  22.2207040
   4.1570850  60.0179220  22.5568450  13.5531470  64.0408830  19.7233900
  13.0913000  63.2696070  20.0521070  14.3657020  64.0674900  20.2286350
   3.5291130  63.9808540  22.0168550   3.8319170  63.0906280  21.8378770
   4.2734720  64.5378760  21.7890800   9.7794780  66.3266840  19.3437890
   9.1606220  66.7824340  18.7732330  10.6346560  66.4818300  18.9427590
   8.9733030  62.3105830  20.9504930   8.9041310  61.3695770  20.7894060
   9.7352890  62.4007240  21.5227500  10.0038200  55.1176210  21.1773860
  10.3803020  54.2448090  21.0647530   9.9057710  55.4534910  20.2864300
   4.1343210  53.4901840  16.6391300   4.2409960  54.3905570  16.9460060
   3.2235570  53.4419810  16.3485950  13.7862320  52.6126650  18.1102200
  14.6071940  52.1223220  18.1527680  13.8196400  53.2024310  18.8634040
   5.9750940  56.4588210  20.9716480   6.4829160  56.9569180  21.6121500
   6.5064180  55.6823410  20.7955840  18.0761870  54.6293400  24.6745830
  17.3714040  55.0175110  24.1560940  18.3419790  55.3243690  25.2766760
   4.2587040  51.0986770  25.2379900   4.2605480  51.6159160  24.4325800
   3.4291350  50.6216950  25.2149830  10.6458130  61.2106080  16.7369800
  10.0275400  61.6755530  16.1732520  11.1581380  61.9033560  17.1539310
   5.5089890  60.7381950  23.4153400   5.1759270  61.3650870  24.0574470
   5.6856570  61.2643830  22.6355070  14.0223800  54.5527030  20.8829740
  13.3179370  54.8411920  21.4632850  14.3835960  55.3627140  20.5229300
   3.9402370  52.8096730  23.2450350   4.2819180  53.6538780  22.9504220
   3.0018180  52.9580470  23.3615690   4.7208990  62.7062750  25.2302580
   5.3382990  63.3813830  24.9487030   3.8602110  63.1150730  25.1390080
  15.6386580  64.1702160  23.1457220  14.9550100  64.8401270  23.1373890
  16.1780870  64.3682810  22.3802080  17.0910720  53.9981820  21.2738950
  16.1435630  54.0320800  21.4054380  17.4160710  54.8120770  21.6588310
   7.6230260  50.2979000  19.5694940   7.9305240  49.7425890  18.8530440
   6.6930960  50.4323460  19.3867930  13.1745320  66.0146290  21.8602400
  13.1872480  65.6108580  20.9924660  12.6220540  66.7893580  21.7563830
  14.4690740  62.7362510  16.9492570  14.3587070  61.7936840  17.0741990
  14.4658990  63.0978150  17.8355330  12.5730760  60.9176130  23.1885010
  12.9899550  60.7036240  22.3538470  13.2970580  61.1748920  23.7593630
  10.0111020  58.3627830  16.3055060   9.0840300  58.2965210  16.5343530
  10.1635840  59.3007960  16.1910300   9.9980100  54.6344830  13.3022220
   9.0583770  54.7958790  13.3874680  10.3163360  55.3530510  12.7558210
  16.5192860  59.3163350  23.2801250  15.6911490  59.3856440  22.8051380
  17.1143340  59.9017660  22.8117080  14.0408310  59.9248130  16.8090310
  13.4220730  59.5867680  16.1616610  14.0232760  59.2807890  17.5169500
  13.4834870  56.1032670  24.2256120  13.0706050  56.9286380  24.4796110
  12.7510820  55.5177710  24.0332480   5.6167660  58.8892570  19.0874790
   5.2124660  58.1769820  18.5920690   5.7030780  58.5445810  19.9762830
   6.0849360  62.5760130  21.2514000   5.7877650  61.9705600  20.5721780
   7.0349180  62.6137440  21.1403360   4.3296280  55.6635780  22.8673830
   4.8810870  55.7731120  22.0927080   4.8439790  56.0373380  23.5829060
  14.1734970  66.1492000  24.9137100  13.6965530  66.9564190  24.7209710
  13.4896760  65.4970330  25.0663310   5.1767790  62.3141820  27.9021800
   4.2796320  62.5381790  28.1495200   5.2020660  62.4376760  26.9533200
  12.2173010  59.1634940  13.8163060  12.6566290  58.3257370  13.6700880
  12.9301430  59.7964340  13.9027200   4.0039010  59.1855140  26.4779170
   3.8646780  60.0577940  26.8466570   3.1220370  58.8427950  26.3327110
  10.3268390  64.1031010  17.7844300  10.7664300  64.8455340  17.3699690
  10.2655280  64.3457580  18.7083260   5.8019360  65.1276840  28.6864320
   5.7734790  65.5319790  27.8192750   5.6384330  64.1987200  28.5235920
  15.7990150  50.4177750  12.1304100  15.4862810  50.5104580  13.0303170
  16.5602620  50.9958780  12.0801530   2.3172290  57.7837550  16.5881440
   2.1969890  58.5099640  15.9762710   2.0073180  57.0140460  16.1109350
  17.7534180  65.9103940  29.9828490  18.2293900  66.3886830  30.6617570
  18.3741340  65.8421430  29.2573990  17.1567430  63.1016790  27.1428500
  17.2830490  62.8628670  26.2245680  17.1988810  62.2701330  27.6150580
  11.0184170  66.8044790  25.7123310  11.5328840  66.7152800  26.5145740
  10.1753250  67.1504490  26.0051220  12.9938570  67.0900130  15.1407310
  12.8339710  66.8003070  16.0389140  12.8285280  66.3140260  14.6052540
   5.4726950  66.8698660  16.9178930   5.2969430  65.9534200  16.7046730
   4.6182690  67.2285950  17.1576730  12.6964700  64.5987690  13.7005310
  12.0029860  64.5964980  13.0407590  13.4387560  64.1747010  13.2699480
  12.2614630  66.2250400  17.7753800  12.7171580  65.4439780  18.0892420
  12.6007150  66.9357220  18.3194980  17.0091440  55.1549250  28.1078240
  16.3935710  55.6628920  27.5793700  16.6887860  54.2547580  28.0504180
   4.7835950  51.1272620  19.9705110   4.3404100  51.9082160  19.6389630
   5.3420940  51.4502510  20.6776050   9.0705760  53.9941140  25.5740430
   8.6085130  54.2024160  26.3860370   8.6683870  53.1800490  25.2711100
  14.0710270  55.2150090  26.7037090  13.2203860  54.9155840  27.0246160
  13.9112060  55.4592100  25.7920910  11.1659980  56.7151840  28.8035880
  11.4913390  55.8815590  28.4638110  11.9540310  57.2380360  28.9514210
   7.8994770  50.7483320  14.8510940   7.2748950  50.7443190  15.5764250
   7.8124890  49.8814280  14.4546910   6.8211850  51.6719950  21.8294710
   7.1184180  52.5782780  21.7486730   7.3697410  51.1838730  21.2154280
   4.5750170  56.2506190  17.6986360   4.3491090  56.0343360  18.6032980
   3.7942700  56.6834650  17.3532330  11.8047930  56.2569560  16.2977010
  11.2056820  56.9805360  16.1140630  12.3527540  56.1946340  15.5153460
   7.0149380  57.1491770  28.3646630   6.9192980  56.2086500  28.2147030
   7.8581360  57.3706840  27.9694700  10.4112800  54.8933100  18.3280290
  10.8042370  55.2105300  17.5148980  10.7729650  54.0144980  18.4424810
   8.7204970  53.6440410  29.5877150   8.0303290  53.4512610  30.2223240
   9.4637270  53.9275050  30.1201450  10.9967940  57.4838850  22.4231070
  10.2649060  57.9925660  22.7721170  10.5992280  56.6668830  22.1219850
   7.4345330  54.1593050  20.8283560   7.4381390  53.7183000  19.9788100
   8.3296450  54.4810380  20.9355380   3.2847710  54.0419540  19.7877770
   2.9447760  54.5194770  20.5444820   2.5225030  53.5884660  19.4278870
   7.4965480  55.1605130  13.8190320   7.6178300  55.1191610  14.7676140
   7.1113990  56.0229280  13.6637050  11.4593850  52.9372530  21.8354010
  11.4766590  53.3881180  22.6795860  11.2109430  52.0378170  22.0487450
   6.5086980  57.4706270  13.2173620   5.9403880  57.0224520  12.5909530
   7.2175980  57.8299050  12.6838770  14.8864600  50.3504710  27.6740390
  15.2110370  49.6194370  28.1998370  14.9221110  50.0318350  26.7721380
   7.7353300  58.2194830  22.5748970   8.1023430  57.7453400  23.3210310
   7.5458360  59.0936400  22.9157310   5.5252670  57.2603470  24.8933180
   5.2209740  58.1395450  25.1183540   6.4799130  57.3203260  24.9290620
   4.0534460  61.4664460  15.4900030   3.2796720  60.9262080  15.3298750
   4.7829090  60.9471070  15.1517790  14.8122440  60.4629820  21.2826420
  15.5321560  60.9585110  20.8922530  14.6104260  59.7847710  20.6380290
  10.2732380  51.8567780  15.4255810   9.4596990  51.3580950  15.3501120
  10.0794330  52.6966030  15.0092160  10.1941240  60.5338880  27.1695420
  10.1278550  59.6134550  26.9153010   9.5646380  60.6314320  27.8840060
  12.9880770  56.2287430  13.7217970  13.8760390  56.5404660  13.5469310
  12.9585860  55.3559680  13.3298550   4.0971860  61.1344840  19.1278840
   4.6150530  60.3313100  19.0735730   3.6455880  61.0723980  19.9695670
   8.9841360  62.4011120  14.4006140   9.3257060  63.1453350  13.9049460
   8.1554070  62.7142240  14.7630970   4.7829520  58.5590450  28.9244090
   4.4829660  58.7047630  28.0271910   5.5540760  57.9995740  28.8317480
  10.1257970  63.3559450  26.9199220  10.1402510  62.4240410  26.7018130
   9.4183070  63.4419210  27.5588990  15.2595040  57.5399270  13.1897830
  15.1758760  57.9713490  12.3394270  15.9789230  57.9997620  13.6224650
  16.3369180  59.9966790  26.2667800  15.6117370  60.5895570  26.0697190
  16.8644640  59.9890330  25.4681170  16.2882290  64.3941530  15.9179960
  15.6458450  63.7397150  16.1923680  15.9012950  64.7996620  15.1420630
  11.8668770  61.7226960  19.7651650  12.2192590  61.1255090  19.1053020
  10.9831100  61.3971190  19.9359900   7.9532050  62.4824650  17.1722060
   8.6403180  63.0293860  17.5529650   7.1664470  63.0265380  17.2071670
   7.2559260  59.4870680  16.7847420   7.7122040  60.2975930  17.0107610
   6.9047470  59.1693820  17.6165910   9.5591870  64.9977020  24.0139720
  10.2034090  65.2036400  24.6913140   9.9221310  64.2365420  23.5610570
   3.1571040  49.8308330  17.2569940   3.0285670  49.8226230  18.2054860
   2.3333060  50.1691420  16.9060950  10.8323950  63.0009370  22.7317170
  11.4746180  62.3002530  22.8449340  11.3573300  63.7807810  22.5514060
  14.6779670  63.2857990  12.4556310  14.4517250  62.5688430  13.0480950
  14.2875870  63.0370430  11.6178060  12.6061570  63.8004270  25.9353230
  12.9417810  64.3870960  26.6131150  11.6861910  63.6696980  26.1651020
  14.2595920  61.2029930  14.1170470  13.9717620  61.6642620  14.9048350
  15.0548090  60.7427700  14.3854690   8.4350150  63.8495600  29.1041290
   8.1147020  63.1304840  29.6486980   7.7608510  64.5250670  29.1777350
   6.4764320  64.6956050  14.0474440   6.4674420  65.4285740  13.4318950
   5.5562680  64.4487630  14.1401400  11.6503750  54.0821760  24.4678090
  12.0184570  53.2616970  24.7957660  10.7901950  54.1423650  24.8833740
  15.0165780  53.0378700  15.2765650  14.3878940  53.1424370  14.5623880
  14.5217700  53.2575480  16.0659530   9.4623920  64.7584290  12.7099630
   9.5635900  64.5548280  11.7801610   8.5625660  64.5042570  12.9147410
   6.9849810  55.3164650  16.6923530   6.2765960  55.7850990  17.1337140
   7.2694290  54.6586660  17.3268720   8.6105740  56.7361350  24.6916060
   9.1090990  57.2107170  25.3567910   8.7528690  55.8124870  24.8986090
  11.0165240  52.0415310  18.1319320  10.8933020  52.0601440  17.1828830
  11.9649800  52.0894250  18.2517720   8.1042030  67.2770610  17.4047300
   8.3583530  67.2392000  16.4826670   7.1554510  67.1503940  17.3975550
   5.1884830  53.6249730  14.0674240   6.0375360  54.0619880  14.0014430
   4.8216100  53.9369990  14.8946300  15.8172600  52.9529310  25.5344450
  15.3146200  53.6934710  25.8738260  16.6329260  53.3413310  25.2181240
  14.1094610  58.1962490  18.9805810  13.1684750  58.2112720  19.1553500
  14.4238680  57.4098450  19.4266110   4.0876250  59.8782090  12.5409770
   4.8539520  59.7663450  13.1035200   4.1650940  59.1820060  11.8886540
   2.7823010  57.3107160  13.2242660   2.8626600  56.3634670  13.3360060
   3.6742760  57.6414040  13.3303320  16.1120190  65.3671340  20.6560070
  16.2367610  66.1902510  21.1283880  16.9785750  65.1562070  20.3084220
   3.5837720  67.4602550  20.3277200   4.3200200  66.9118010  20.5985770
   3.9678640  68.3258560  20.1883190   2.5896000  66.6448620  29.5162780
   3.3908730  66.9660670  29.9298180   2.0747820  66.2844200  30.2382690
   6.6940030  66.6332860  12.1502770   7.4868640  66.9221690  11.6984560
   6.1744380  66.2025030  11.4715250  11.4260630  62.7528490  29.4638190
  10.8198790  62.7760090  28.7233940  11.1214740  62.0211530  30.0005440
  12.8561000  66.4808780  28.0747600  13.8082750  66.3966800  28.0247840
  12.7089220  67.1450490  28.7481390  15.7470200  65.8602990  13.5739510
  15.4611710  65.4468130  12.7593690  15.5489750  66.7890700  13.4540030
   7.2117430  61.8536270  12.0145120   7.1068070  61.2388620  12.7406500
   7.0441650  61.3302160  11.2308130   7.3631750  60.5393070  27.9934350
   6.5977420  61.1078070  27.9089020   7.5447710  60.2469280  27.1002580
  10.4520160  60.9156300  12.6187110   9.9030260  61.3625600  13.2629850
  11.0739420  60.4105550  13.1424780  14.5055100  62.2698400  28.5509370
  15.2464570  62.6074160  28.0476830  13.7427780  62.4390460  27.9979140
   2.3416890  57.2751670  29.3548900   2.3822230  56.9765540  30.2634130
   3.1962390  57.6759280  29.1956420   6.1195280  59.8747220  14.5152410
   6.5411700  59.7087090  15.3583800   6.2446120  59.0647450  14.0207550
   4.2822700  55.8543770  27.3223390   3.7519160  55.3634720  26.6946730
   4.9510770  56.2827970  26.7881320   8.6322920  58.8984830  11.7629510
   9.1528580  58.1833850  11.3970660   9.2791320  59.5370700  12.0630020
  13.1800760  60.3213230  27.0864580  13.5941780  60.4758310  27.9355000
  12.2451760  60.4468450  27.2490360  13.6522930  57.6609390  29.0903730
  14.2343700  56.9061710  29.0024210  13.8284700  58.1916830  28.3135210
   4.7695000  52.8206140  27.4020680   4.6751870  52.2026890  26.6771550
   4.1892390  53.5472430  27.1750590   7.5356440  51.3779380  24.4348070
   7.0873740  51.4003640  23.5893620   6.9021640  50.9798400  25.0318370
   7.9415990  60.2733710  25.0560510   8.3604100  61.1166440  24.8836750
   7.0224620  60.4105750  24.8267290  10.2779890  58.0049890  26.4398350
  10.3976100  57.4091030  27.1793190  11.1373890  58.0419580  26.0199650
  12.6167790  58.5587080  25.0160860  12.0903010  59.0829700  24.4126000
  12.9599130  59.1914470  25.6470590   5.0154180  55.9480450  11.4610570
   4.8143240  55.0847810  11.8223910   4.8446230  55.8613810  10.5232170
   5.7923410  66.5786720  26.1718240   5.2544500  67.3032780  25.8526940
   6.0457370  66.1017060  25.3815580   7.0448660  54.5471240  27.6974170
   7.6348350  54.2387090  28.3851990   6.2268900  54.0750990  27.8534070
  11.8642090  54.1637050  27.9307190  11.1757610  53.5018590  27.8657180
  12.5848110  53.7175320  28.3755650  12.4942490  50.7588680  13.9897450
  12.7744780  49.9156580  14.3456870  11.7208220  50.9911790  14.5036200
   3.8136980  53.0481070  11.4488450   4.1162880  53.0548500  10.5407600
   4.5531570  52.6978930  11.9456110   8.6485620  67.8137930  26.4304890
   8.5744320  68.7173070  26.7377260   7.7464460  67.4949830  26.4026960
   7.0321910  51.9915690  12.4344650   6.6843910  51.3139680  11.8547100
   7.2334680  51.5305200  13.2488040   9.1970950  66.9796440  14.0531250
  10.0921740  67.3181410  14.0750010   9.2288580  66.2575850  13.4255530
   2.8367110  62.3523490  12.2818250   3.2741980  62.8953160  12.9375830
   3.3214840  61.5270440  12.2914590   4.6474830  63.4721530  17.3940480
   4.3470370  63.3486500  18.2944390   4.5412320  62.6130120  16.9856210
  16.1765300  65.5100110  26.7597450  15.5767290  65.5692670  26.0161370
  16.3059200  64.5705090  26.8894300  17.4166750  63.2517930  12.0967160
  16.5859710  63.3194580  12.5674390  17.5938580  64.1422050  11.7934020
  16.8723210  59.9965410  14.6001360  17.6342120  60.5662060  14.7061050
  16.8877580  59.4292610  15.3709670  17.8783180  60.8515510  19.4443290
  18.2492010  60.0682830  19.0379260  18.5185110  61.5404610  19.2660590
  14.8616940  62.2352090  24.8573610  14.0476780  62.6649250  25.1199400
  15.2691140  62.8470500  24.2442660  16.9242380  60.2899780  11.7573880
  17.1991220  61.1978660  11.6293100  16.7353120  60.2262310  12.6935870
  13.3217990  53.3144630  13.0527510  13.7402870  53.1275610  12.2124170
  13.0154050  52.4623680  13.3630440  16.8207720  58.2268770  16.7503310
  16.4451320  57.4596700  16.3184600  16.0910840  58.6091470  17.2378240
  16.2107340  57.3740290  26.3842830  15.9793430  57.1453040  25.4840780
  16.4711890  58.2939840  26.3387720  14.6495410  52.5996720  29.1622530
  15.5265590  52.6080120  29.5456530  14.6616250  51.8627560  28.5514880
  16.0958680  56.4526260  20.0510550  16.6196160  55.9588910  19.4200720
  16.6818100  56.5876620  20.7958120  16.2748400  56.5366130  23.5730100
  15.3251110  56.5029670  23.6875090  16.4561410  57.4466240  23.3379870
   1.7767000  50.8407140  11.7231380   2.4995130  51.3816080  12.0412600
   2.0491520  50.5670560  10.8472920  15.5858650  55.7099610  15.9902960
  16.0817770  55.4770480  16.7751840  15.3874720  54.8711450  15.5740600
  17.0145810  54.3460560  18.5240640  16.9045090  54.1916600  19.4622910
  17.7753400  53.8181500  18.2816050  15.3611530  50.2854690  24.9823640
  15.9983750  50.8988830  25.3482830  15.5086420  50.3215350  24.0372870
  17.9036080  52.1768480  11.7646780  18.8285390  52.0449660  11.5565070
  17.8811870  52.2561300  12.7183230  17.9774570  52.9479140  14.3903490
  17.1826070  52.8824260  14.9196400  18.1817850  53.8829780  14.3788840
  14.9192990  66.9870690  18.3841880  15.5152060  66.6655260  17.7076300
  15.1771140  66.5142510  19.1755150   2.8255560  63.4188600  28.5332510
   2.7825190  63.0481510  29.4146970   2.9566570  64.3566170  28.6734330
   6.5261590  64.9748190  24.1342230   6.2852950  65.2422750  23.2472750
   7.4664230  65.1453920  24.1893090   8.7316010  51.4380880  27.8898740
   8.6704900  52.0302710  28.6394150   9.6716390  51.3306840  27.7449000
  11.3690570  51.0950940  27.5291030  11.9830980  51.4130230  26.8672110
  11.9140130  50.6099530  28.1486890  17.7865750  66.9942570  24.9352870
  17.2924030  67.3911440  24.2180000  17.1779040  66.3691780  25.3290150
   1.8911830  49.7745200  27.6430090   2.4394820  49.5933250  26.8796200
   1.9567140  48.9839310  28.1786400   2.6643590  66.3650850  25.6530290
   2.0703910  66.2335550  26.3920330   2.6567430  65.5288990  25.1872390
  12.1098610  49.6583080  23.8560320  11.2358450  49.9918190  23.6533250
  12.0009360  49.1856260  24.6812190  13.0170590  51.8653950  25.2402040
  12.6883950  51.0505710  24.8603770  13.9652890  51.8223760  25.1167730
  15.4705200  67.6365990  22.2139610  15.0108170  68.3881800  21.8397630
  14.8417660  66.9172460  22.1554410   5.9000920  65.9454230  21.3887740
   6.4165940  65.3341590  20.8636000   6.5498300  66.4483010  21.8798750
   8.6396420  66.8362720  22.2156720   8.9274230  66.5817020  21.3389730
   9.1519640  66.2840080  22.8062290   9.8573430  50.5752920  22.7953230
   9.0745220  51.0498420  23.0749990   9.5636360  49.6707750  22.6866410
  14.4094500  51.2776020  20.8402320  14.8502590  51.2221120  19.9923920
  14.1402090  52.1934030  20.9112500  16.2733070  50.9091260  18.8511140
  16.2121470  49.9652480  18.7042160  17.0525100  51.0171350  19.3964600
   7.7427650  52.9939670  18.3069260   6.9302160  52.6196560  17.9665140
   8.2469290  52.2384750  18.6090450  12.2452630  49.6582120  19.5452330
  12.8482000  50.2302330  20.0200850  11.5045620  50.2221560  19.3226230
  15.3887230  50.0603680  14.8192610  15.5837860  50.9587130  15.0860040
  14.6017100  49.8290760  15.3125560   2.1848520  65.7416850  15.2585230
   1.6596140  66.1224880  14.5547190   2.1093100  66.3667620  15.9794940
   3.5738990  51.4064450  13.8568920   4.1031750  50.6194250  13.7276870
   4.2067310  52.0855640  14.0904450   5.7676830  51.1439590  16.9114310
   5.1379570  50.4426900  17.0784440   5.2281970  51.9043720  16.6947470
   8.7068780  67.7578820  29.5824920   9.6336090  67.5223090  29.6260880
   8.6919210  68.5850820  29.1010950  16.9413840  67.3004390  16.5799170
  17.1166030  66.6142130  15.9360090  16.2435410  67.8251440  16.1875840
   5.8932390  50.4223570  29.3466800   5.6116660  50.9257170  28.5827620
   6.2752090  49.6245320  28.9808930   4.7841490  67.6899230  14.1334480
   5.5160310  67.4058510  13.5858370   5.0435160  67.4512510  15.0233860
   3.9456280  63.8063960  14.1380810   3.3165160  64.2749060  14.6866640
   4.0604110  62.9613180  14.5727000  12.4947850  49.8377150  29.9247270
  12.3813300  50.1571760  30.8198790  13.3117590  50.2389660  29.6284550
  15.2746340  66.9848680  29.4065960  16.0671660  66.4897910  29.1991920
  15.5679490  67.6638820  30.0141570   9.5324040  59.6348640   2.1691280
   8.7566140  59.1549080   2.4589850  10.1836970  58.9554290   1.9947440
   3.5489870  59.9468450   3.0467040   2.7174750  59.6917160   3.4463550
   4.1570850  60.0179220   3.7824960   3.5291130  63.9808540   3.2425060
   3.8319170  63.0906280   3.0635280   4.2734720  64.5378760   3.0147310
   8.9733030  62.3105830   2.1761440   8.9041310  61.3695770   2.0150570
   9.7352890  62.4007240   2.7484010   5.9750940  56.4588210   2.1972990
   6.4829160  56.9569180   2.8378010   6.5064180  55.6823410   2.0212350
  18.0761870  54.6293400   5.9002340  17.3714040  55.0175110   5.3817450
  18.3419790  55.3243690   6.5023270   4.2587040  51.0986770   6.4636410
   4.2605480  51.6159160   5.6582310   3.4291350  50.6216950   6.4406340
   5.5089890  60.7381950   4.6409910   5.1759270  61.3650870   5.2830980
   5.6856570  61.2643830   3.8611580  14.0223800  54.5527030   2.1086250
  13.3179370  54.8411920   2.6889360  14.3835960  55.3627140   1.7485810
   3.9402370  52.8096730   4.4706860   4.2819180  53.6538780   4.1760730
   3.0018180  52.9580470   4.5872200   4.7208990  62.7062750   6.4559090
   5.3382990  63.3813830   6.1743540   3.8602110  63.1150730   6.3646590
  15.6386580  64.1702160   4.3713730  14.9550100  64.8401270   4.3630400
  16.1780870  64.3682810   3.6058590  17.0910720  53.9981820   2.4995460
  16.1435630  54.0320800   2.6310890  17.4160710  54.8120770   2.8844820
  13.1745320  66.0146290   3.0858910  13.1872480  65.6108580   2.2181170
  12.6220540  66.7893580   2.9820340  12.5730760  60.9176130   4.4141520
  12.9899550  60.7036240   3.5794980  13.2970580  61.1748920   4.9850140
  16.5192860  59.3163350   4.5057760  15.6911490  59.3856440   4.0307890
  17.1143340  59.9017660   4.0373590  13.4834870  56.1032670   5.4512630
  13.0706050  56.9286380   5.7052620  12.7510820  55.5177710   5.2588990
   6.0849360  62.5760130   2.4770510   5.7877650  61.9705600   1.7978290
   7.0349180  62.6137440   2.3659870   4.3296280  55.6635780   4.0930340
   4.8810870  55.7731120   3.3183590   4.8439790  56.0373380   4.8085570
  14.1734970  66.1492000   6.1393610  13.6965530  66.9564190   5.9466220
  13.4896760  65.4970330   6.2919820   5.1767790  62.3141820   9.1278310
   4.2796320  62.5381790   9.3751710   5.2020660  62.4376760   8.1789710
   4.0039010  59.1855140   7.7035680   3.8646780  60.0577940   8.0723080
   3.1220370  58.8427950   7.5583620   5.8019360  65.1276840   9.9120830
   5.7734790  65.5319790   9.0449260   5.6384330  64.1987200   9.7492430
  17.7534180  65.9103940  11.2085000  18.2293900  66.3886830  11.8874080
  18.3741340  65.8421430  10.4830500  17.1567430  63.1016790   8.3685010
  17.2830490  62.8628670   7.4502190  17.1988810  62.2701330   8.8407090
  11.0184170  66.8044790   6.9379820  11.5328840  66.7152800   7.7402250
  10.1753250  67.1504490   7.2307730  17.0091440  55.1549250   9.3334750
  16.3935710  55.6628920   8.8050210  16.6887860  54.2547580   9.2760690
   9.0705760  53.9941140   6.7996940   8.6085130  54.2024160   7.6116880
   8.6683870  53.1800490   6.4967610  14.0710270  55.2150090   7.9293600
  13.2203860  54.9155840   8.2502670  13.9112060  55.4592100   7.0177420
  11.1659980  56.7151840  10.0292390  11.4913390  55.8815590   9.6894620
  11.9540310  57.2380360  10.1770720   6.8211850  51.6719950   3.0551220
   7.1184180  52.5782780   2.9743240   7.3697410  51.1838730   2.4410790
   7.0149380  57.1491770   9.5903140   6.9192980  56.2086500   9.4403540
   7.8581360  57.3706840   9.1951210   8.7204970  53.6440410  10.8133660
   8.0303290  53.4512610  11.4479750   9.4637270  53.9275050  11.3457960
  10.9967940  57.4838850   3.6487580  10.2649060  57.9925660   3.9977680
  10.5992280  56.6668830   3.3476360  11.4593850  52.9372530   3.0610520
  11.4766590  53.3881180   3.9052370  11.2109430  52.0378170   3.2743960
  14.8864600  50.3504710   8.8996900  15.2110370  49.6194370   9.4254880
  14.9221110  50.0318350   7.9977890   7.7353300  58.2194830   3.8005480
   8.1023430  57.7453400   4.5466820   7.5458360  59.0936400   4.1413820
   5.5252670  57.2603470   6.1189690   5.2209740  58.1395450   6.3440050
   6.4799130  57.3203260   6.1547130  14.8122440  60.4629820   2.5082930
  15.5321560  60.9585110   2.1179040  14.6104260  59.7847710   1.8636800
  10.1941240  60.5338880   8.3951930  10.1278550  59.6134550   8.1409520
   9.5646380  60.6314320   9.1096570   4.7829520  58.5590450  10.1500600
   4.4829660  58.7047630   9.2528420   5.5540760  57.9995740  10.0573990
  10.1257970  63.3559450   8.1455730  10.1402510  62.4240410   7.9274640
   9.4183070  63.4419210   8.7845500  16.3369180  59.9966790   7.4924310
  15.6117370  60.5895570   7.2953700  16.8644640  59.9890330   6.6937680
   9.5591870  64.9977020   5.2396230  10.2034090  65.2036400   5.9169650
   9.9221310  64.2365420   4.7867080  10.8323950  63.0009370   3.9573680
  11.4746180  62.3002530   4.0705850  11.3573300  63.7807810   3.7770570
  12.6061570  63.8004270   7.1609740  12.9417810  64.3870960   7.8387660
  11.6861910  63.6696980   7.3907530   8.4350150  63.8495600  10.3297800
   8.1147020  63.1304840  10.8743490   7.7608510  64.5250670  10.4033860
  11.6503750  54.0821760   5.6934600  12.0184570  53.2616970   6.0214170
  10.7901950  54.1423650   6.1090250   8.6105740  56.7361350   5.9172570
   9.1090990  57.2107170   6.5824420   8.7528690  55.8124870   6.1242600
  15.8172600  52.9529310   6.7600960  15.3146200  53.6934710   7.0994770
  16.6329260  53.3413310   6.4437750   2.5896000  66.6448620  10.7419290
   3.3908730  66.9660670  11.1554690   2.0747820  66.2844200  11.4639200
  11.4260630  62.7528490  10.6894700  10.8198790  62.7760090   9.9490450
  11.1214740  62.0211530  11.2261950  12.8561000  66.4808780   9.3004110
  13.8082750  66.3966800   9.2504350  12.7089220  67.1450490   9.9737900
   7.3631750  60.5393070   9.2190860   6.5977420  61.1078070   9.1345530
   7.5447710  60.2469280   8.3259090  14.5055100  62.2698400   9.7765880
  15.2464570  62.6074160   9.2733340  13.7427780  62.4390460   9.2235650
   2.3416890  57.2751670  10.5805410   2.3822230  56.9765540  11.4890640
   3.1962390  57.6759280  10.4212930   4.2822700  55.8543770   8.5479900
   3.7519160  55.3634720   7.9203240   4.9510770  56.2827970   8.0137830
  13.1800760  60.3213230   8.3121090  13.5941780  60.4758310   9.1611510
  12.2451760  60.4468450   8.4746870  13.6522930  57.6609390  10.3160240
  14.2343700  56.9061710  10.2280720  13.8284700  58.1916830   9.5391720
   4.7695000  52.8206140   8.6277190   4.6751870  52.2026890   7.9028060
   4.1892390  53.5472430   8.4007100   7.5356440  51.3779380   5.6604580
   7.0873740  51.4003640   4.8150130   6.9021640  50.9798400   6.2574880
   7.9415990  60.2733710   6.2817020   8.3604100  61.1166440   6.1093260
   7.0224620  60.4105750   6.0523800  10.2779890  58.0049890   7.6654860
  10.3976100  57.4091030   8.4049700  11.1373890  58.0419580   7.2456160
  12.6167790  58.5587080   6.2417370  12.0903010  59.0829700   5.6382510
  12.9599130  59.1914470   6.8727100   5.7923410  66.5786720   7.3974750
   5.2544500  67.3032780   7.0783450   6.0457370  66.1017060   6.6072090
   7.0448660  54.5471240   8.9230680   7.6348350  54.2387090   9.6108500
   6.2268900  54.0750990   9.0790580  11.8642090  54.1637050   9.1563700
  11.1757610  53.5018590   9.0913690  12.5848110  53.7175320   9.6012160
   8.6485620  67.8137930   7.6561400   8.5744320  68.7173070   7.9633770
   7.7464460  67.4949830   7.6283470  16.1765300  65.5100110   7.9853960
  15.5767290  65.5692670   7.2417880  16.3059200  64.5705090   8.1150810
  14.8616940  62.2352090   6.0830120  14.0476780  62.6649250   6.3455910
  15.2691140  62.8470500   5.4699170  16.2107340  57.3740290   7.6099340
  15.9793430  57.1453040   6.7097290  16.4711890  58.2939840   7.5644230
  14.6495410  52.5996720  10.3879040  15.5265590  52.6080120  10.7713040
  14.6616250  51.8627560   9.7771390  16.2748400  56.5366130   4.7986610
  15.3251110  56.5029670   4.9131600  16.4561410  57.4466240   4.5636380
  15.3611530  50.2854690   6.2080150  15.9983750  50.8988830   6.5739340
  15.5086420  50.3215350   5.2629380   2.8255560  63.4188600   9.7589020
   2.7825190  63.0481510  10.6403480   2.9566570  64.3566170   9.8990840
   6.5261590  64.9748190   5.3598740   6.2852950  65.2422750   4.4729260
   7.4664230  65.1453920   5.4149600   8.7316010  51.4380880   9.1155250
   8.6704900  52.0302710   9.8650660   9.6716390  51.3306840   8.9705510
  11.3690570  51.0950940   8.7547540  11.9830980  51.4130230   8.0928620
  11.9140130  50.6099530   9.3743400  17.7865750  66.9942570   6.1609380
  17.2924030  67.3911440   5.4436510  17.1779040  66.3691780   6.5546660
   1.8911830  49.7745200   8.8686600   2.4394820  49.5933250   8.1052710
   1.9567140  48.9839310   9.4042910   2.6643590  66.3650850   6.8786800
   2.0703910  66.2335550   7.6176840   2.6567430  65.5288990   6.4128900
  12.1098610  49.6583080   5.0816830  11.2358450  49.9918190   4.8789760
  12.0009360  49.1856260   5.9068700  13.0170590  51.8653950   6.4658550
  12.6883950  51.0505710   6.0860280  13.9652890  51.8223760   6.3424240
  15.4705200  67.6365990   3.4396120  15.0108170  68.3881800   3.0654140
  14.8417660  66.9172460   3.3810920   5.9000920  65.9454230   2.6144250
   6.4165940  65.3341590   2.0892510   6.5498300  66.4483010   3.1055260
   8.6396420  66.8362720   3.4413230   8.9274230  66.5817020   2.5646240
   9.1519640  66.2840080   4.0318800   9.8573430  50.5752920   4.0209740
   9.0745220  51.0498420   4.3006500   9.5636360  49.6707750   3.9122920
   8.7068780  67.7578820  10.8081430   9.6336090  67.5223090  10.8517390
   8.6919210  68.5850820  10.3267460   5.8932390  50.4223570  10.5723310
   5.6116660  50.9257170   9.8084130   6.2752090  49.6245320  10.2065440
  12.4947850  49.8377150  11.1503780  12.3813300  50.1571760  12.0455300
  13.3117590  50.2389660  10.8541060  15.2746340  66.9848680  10.6322470
  16.0671660  66.4897910  10.4248430  15.5679490  67.6638820  11.2398080
  11.4006000  39.0826130  94.1599460  11.3200050  38.1680740  93.8891170
  10.9870420  39.5793200  93.4539170  13.5531470  45.2665340  94.8207860
  13.0913000  44.4952580  95.1495030  14.3657020  45.2931410  95.3260310
   9.7794780  47.5523350  94.4411850   9.1606220  48.0080850  93.8706290
  10.6346560  47.7074810  94.0401550   4.1343210  34.7158350  91.7365260
   4.2409960  35.6162080  92.0434020   3.2235570  34.6676320  91.4459910
  13.7862320  33.8383160  93.2076160  14.6071940  33.3479730  93.2501640
  13.8196400  34.4280820  93.9608000  10.6458130  42.4362590  91.8343760
  10.0275400  42.9012040  91.2706480  11.1581380  43.1290070  92.2513270
   7.6230260  31.5235510  94.6668900   7.9305240  30.9682400  93.9504400
   6.6930960  31.6579970  94.4841890  14.4690740  43.9619020  92.0466530
  14.3587070  43.0193350  92.1715950  14.4658990  44.3234660  92.9329290
  10.0111020  39.5884340  91.4029020   9.0840300  39.5221720  91.6317490
  10.1635840  40.5264470  91.2884260   9.9980100  35.8601340  88.3996180
   9.0583770  36.0215300  88.4848640  10.3163360  36.5787020  87.8532170
  14.0408310  41.1504640  91.9064270  13.4220730  40.8124190  91.2590570
  14.0232760  40.5064400  92.6143460   5.6167660  40.1149080  94.1848750
   5.2124660  39.4026330  93.6894650   5.7030780  39.7702320  95.0736790
  12.2173010  40.3891450  88.9137020  12.6566290  39.5513880  88.7674840
  12.9301430  41.0220850  89.0001160  10.3268390  45.3287520  92.8818260
  10.7664300  46.0711850  92.4673650  10.2655280  45.5714090  93.8057220
  15.7990150  31.6434260  87.2278060  15.4862810  31.7361090  88.1277130
  16.5602620  32.2215290  87.1775490   2.3172290  39.0094060  91.6855400
   2.1969890  39.7356150  91.0736670   2.0073180  38.2396970  91.2083310
  12.9938570  48.3156640  90.2381270  12.8339710  48.0259580  91.1363100
  12.8285280  47.5396770  89.7026500   5.4726950  48.0955170  92.0152890
   5.2969430  47.1790710  91.8020690   4.6182690  48.4542460  92.2550690
  12.6964700  45.8244200  88.7979270  12.0029860  45.8221490  88.1381550
  13.4387560  45.4003520  88.3673440  12.2614630  47.4506910  92.8727760
  12.7171580  46.6696290  93.1866380  12.6007150  48.1613730  93.4168940
   4.7835950  32.3529130  95.0679070   4.3404100  33.1338670  94.7363590
   5.3420940  32.6759020  95.7750010   7.8994770  31.9739830  89.9484900
   7.2748950  31.9699700  90.6738210   7.8124890  31.1070790  89.5520870
   4.5750170  37.4762700  92.7960320   4.3491090  37.2599870  93.7006940
   3.7942700  37.9091160  92.4506290  11.8047930  37.4826070  91.3950970
  11.2056820  38.2061870  91.2114590  12.3527540  37.4202850  90.6127420
  10.4112800  36.1189610  93.4254250  10.8042370  36.4361810  92.6122940
  10.7729650  35.2401490  93.5398770   7.4345330  35.3849560  95.9257520
   7.4381390  34.9439510  95.0762060   8.3296450  35.7066890  96.0329340
   3.2847710  35.2676050  94.8851730   2.9447760  35.7451280  95.6418780
   2.5225030  34.8141170  94.5252830   7.4965480  36.3861640  88.9164280
   7.6178300  36.3448120  89.8650100   7.1113990  37.2485790  88.7611010
   6.5086980  38.6962780  88.3147580   5.9403880  38.2481030  87.6883490
   7.2175980  39.0555560  87.7812730   4.0534460  42.6920970  90.5873990
   3.2796720  42.1518590  90.4272710   4.7829090  42.1727580  90.2491750
  10.2732380  33.0824290  90.5229770   9.4596990  32.5837460  90.4475080
  10.0794330  33.9222540  90.1066120  12.9880770  37.4543940  88.8191930
  13.8760390  37.7661170  88.6443270  12.9585860  36.5816190  88.4272510
   4.0971860  42.3601350  94.2252800   4.6150530  41.5569610  94.1709690
   3.6455880  42.2980490  95.0669630   8.9841360  43.6267630  89.4980100
   9.3257060  44.3709860  89.0023420   8.1554070  43.9398750  89.8604930
  15.2595040  38.7655780  88.2871790  15.1758760  39.1970000  87.4368230
  15.9789230  39.2254130  88.7198610  16.2882290  45.6198040  91.0153920
  15.6458450  44.9653660  91.2897640  15.9012950  46.0253130  90.2394590
  11.8668770  42.9483470  94.8625610  12.2192590  42.3511600  94.2026980
  10.9831100  42.6227700  95.0333860   7.9532050  43.7081160  92.2696020
   8.6403180  44.2550370  92.6503610   7.1664470  44.2521890  92.3045630
   7.2559260  40.7127190  91.8821380   7.7122040  41.5232440  92.1081570
   6.9047470  40.3950330  92.7139870   3.1571040  31.0564840  92.3543900
   3.0285670  31.0482740  93.3028820   2.3333060  31.3947930  92.0034910
  14.6779670  44.5114500  87.5530270  14.4517250  43.7944940  88.1454910
  14.2875870  44.2626940  86.7152020  14.2595920  42.4286440  89.2144430
  13.9717620  42.8899130  90.0022310  15.0548090  41.9684210  89.4828650
   6.4764320  45.9212560  89.1448400   6.4674420  46.6542250  88.5292910
   5.5562680  45.6744140  89.2375360  15.0165780  34.2635210  90.3739610
  14.3878940  34.3680880  89.6597840  14.5217700  34.4831990  91.1633490
   9.4623920  45.9840800  87.8073590   9.5635900  45.7804790  86.8775570
   8.5625660  45.7299080  88.0121370   6.9849810  36.5421160  91.7897490
   6.2765960  37.0107500  92.2311100   7.2694290  35.8843170  92.4242680
  11.0165240  33.2671820  93.2293280  10.8933020  33.2857950  92.2802790
  11.9649800  33.3150760  93.3491680   8.1042030  48.5027120  92.5021260
   8.3583530  48.4648510  91.5800630   7.1554510  48.3760450  92.4949510
   5.1884830  34.8506240  89.1648200   6.0375360  35.2876390  89.0988390
   4.8216100  35.1626500  89.9920260  14.1094610  39.4219000  94.0779770
  13.1684750  39.4369230  94.2527460  14.4238680  38.6354960  94.5240070
   4.0876250  41.1038600  87.6383730   4.8539520  40.9919960  88.2009160
   4.1650940  40.4076570  86.9860500   2.7823010  38.5363670  88.3216620
   2.8626600  37.5891180  88.4334020   3.6742760  38.8670550  88.4277280
   3.5837720  48.6859060  95.4251160   4.3200200  48.1374520  95.6959730
   3.9678640  49.5515070  95.2857150   6.6940030  47.8589370  87.2476730
   7.4868640  48.1478200  86.7958520   6.1744380  47.4281540  86.5689210
  15.7470200  47.0859500  88.6713470  15.4611710  46.6724640  87.8567650
  15.5489750  48.0147210  88.5513990   7.2117430  43.0792780  87.1119080
   7.1068070  42.4645130  87.8380460   7.0441650  42.5558670  86.3282090
  10.4520160  42.1412810  87.7161070   9.9030260  42.5882110  88.3603810
  11.0739420  41.6362060  88.2398740   6.1195280  41.1003730  89.6126370
   6.5411700  40.9343600  90.4557760   6.2446120  40.2903960  89.1181510
   8.6322920  40.1241340  86.8603470   9.1528580  39.4090360  86.4944620
   9.2791320  40.7627210  87.1603980   5.0154180  37.1736960  86.5584530
   4.8143240  36.3104320  86.9197870   4.8446230  37.0870320  85.6206130
  12.4942490  31.9845190  89.0871410  12.7744780  31.1413090  89.4430830
  11.7208220  32.2168300  89.6010160   3.8136980  34.2737580  86.5462410
   4.1162880  34.2805010  85.6381560   4.5531570  33.9235440  87.0430070
   7.0321910  33.2172200  87.5318610   6.6843910  32.5396190  86.9521060
   7.2334680  32.7561710  88.3462000   9.1970950  48.2052950  89.1505210
  10.0921740  48.5437920  89.1723970   9.2288580  47.4832360  88.5229490
   2.8367110  43.5780000  87.3792210   3.2741980  44.1209670  88.0349790
   3.3214840  42.7526950  87.3888550   4.6474830  44.6978040  92.4914440
   4.3470370  44.5743010  93.3918350   4.5412320  43.8386630  92.0830170
  17.4166750  44.4774440  87.1941120  16.5859710  44.5451090  87.6648350
  17.5938580  45.3678560  86.8907980  16.8723210  41.2221920  89.6975320
  17.6342120  41.7918570  89.8035010  16.8877580  40.6549120  90.4683630
  17.8783180  42.0772020  94.5417250  18.2492010  41.2939340  94.1353220
  18.5185110  42.7661120  94.3634550  16.9242380  41.5156290  86.8547840
  17.1991220  42.4235170  86.7267060  16.7353120  41.4518820  87.7909830
  13.3217990  34.5401140  88.1501470  13.7402870  34.3532120  87.3098130
  13.0154050  33.6880190  88.4604400  16.8207720  39.4525280  91.8477270
  16.4451320  38.6853210  91.4158560  16.0910840  39.8347980  92.3352200
  16.0958680  37.6782770  95.1484510  16.6196160  37.1845420  94.5174680
  16.6818100  37.8133130  95.8932080   1.7767000  32.0663650  86.8205340
   2.4995130  32.6072590  87.1386560   2.0491520  31.7927070  85.9446880
  15.5858650  36.9356120  91.0876920  16.0817770  36.7026990  91.8725800
  15.3874720  36.0967960  90.6714560  17.0145810  35.5717070  93.6214600
  16.9045090  35.4173110  94.5596870  17.7753400  35.0438010  93.3790010
  17.9036080  33.4024990  86.8620740  18.8285390  33.2706170  86.6539030
  17.8811870  33.4817810  87.8157190  17.9774570  34.1735650  89.4877450
  17.1826070  34.1080770  90.0170360  18.1817850  35.1086290  89.4762800
  14.9192990  48.2127200  93.4815840  15.5152060  47.8911770  92.8050260
  15.1771140  47.7399020  94.2729110  14.4094500  32.5032530  95.9376280
  14.8502590  32.4477630  95.0897880  14.1402090  33.4190540  96.0086460
  16.2733070  32.1347770  93.9485100  16.2121470  31.1908990  93.8016120
  17.0525100  32.2427860  94.4938560   7.7427650  34.2196180  93.4043220
   6.9302160  33.8453070  93.0639100   8.2469290  33.4641260  93.7064410
  12.2452630  30.8838630  94.6426290  12.8482000  31.4558840  95.1174810
  11.5045620  31.4478070  94.4200190  15.3887230  31.2860190  89.9166570
  15.5837860  32.1843640  90.1834000  14.6017100  31.0547270  90.4099520
   2.1848520  46.9673360  90.3559190   1.6596140  47.3481390  89.6521150
   2.1093100  47.5924130  91.0768900   3.5738990  32.6320960  88.9542880
   4.1031750  31.8450760  88.8250830   4.2067310  33.3112150  89.1878410
   5.7676830  32.3696100  92.0088270   5.1379570  31.6683410  92.1758400
   5.2281970  33.1300230  91.7921430  16.9413840  48.5260900  91.6773130
  17.1166030  47.8398640  91.0334050  16.2435410  49.0507950  91.2849800
   4.7841490  48.9155740  89.2308440   5.5160310  48.6315020  88.6832330
   5.0435160  48.6769020  90.1207820   3.9456280  45.0320470  89.2354770
   3.3165160  45.5005570  89.7840600   4.0604110  44.1869690  89.6700960
  11.4006000  39.0826130  75.3855970  11.3200050  38.1680740  75.1147680
  10.9870420  39.5793200  74.6795680   9.5324040  40.8605150  77.2665240
   8.7566140  40.3805590  77.5563810  10.1836970  40.1810800  77.0921400
   3.5489870  41.1724960  78.1441000   2.7174750  40.9173670  78.5437510
   4.1570850  41.2435730  78.8798920  13.5531470  45.2665340  76.0464370
  13.0913000  44.4952580  76.3751540  14.3657020  45.2931410  76.5516820
   3.5291130  45.2065050  78.3399020   3.8319170  44.3162790  78.1609240
   4.2734720  45.7635270  78.1121270   9.7794780  47.5523350  75.6668360
   9.1606220  48.0080850  75.0962800  10.6346560  47.7074810  75.2658060
   8.9733030  43.5362340  77.2735400   8.9041310  42.5952280  77.1124530
   9.7352890  43.6263750  77.8457970  10.0038200  36.3432720  77.5004330
  10.3803020  35.4704600  77.3878000   9.9057710  36.6791420  76.6094770
   4.1343210  34.7158350  72.9621770   4.2409960  35.6162080  73.2690530
   3.2235570  34.6676320  72.6716420  13.7862320  33.8383160  74.4332670
  14.6071940  33.3479730  74.4758150  13.8196400  34.4280820  75.1864510
   5.9750940  37.6844720  77.2946950   6.4829160  38.1825690  77.9351970
   6.5064180  36.9079920  77.1186310  18.0761870  35.8549910  80.9976300
  17.3714040  36.2431620  80.4791410  18.3419790  36.5500200  81.5997230
   4.2587040  32.3243280  81.5610370   4.2605480  32.8415670  80.7556270
   3.4291350  31.8473460  81.5380300  10.6458130  42.4362590  73.0600270
  10.0275400  42.9012040  72.4962990  11.1581380  43.1290070  73.4769780
   5.5089890  41.9638460  79.7383870   5.1759270  42.5907380  80.3804940
   5.6856570  42.4900340  78.9585540  14.0223800  35.7783540  77.2060210
  13.3179370  36.0668430  77.7863320  14.3835960  36.5883650  76.8459770
   3.9402370  34.0353240  79.5680820   4.2819180  34.8795290  79.2734690
   3.0018180  34.1836980  79.6846160   4.7208990  43.9319260  81.5533050
   5.3382990  44.6070340  81.2717500   3.8602110  44.3407240  81.4620550
  15.6386580  45.3958670  79.4687690  14.9550100  46.0657780  79.4604360
  16.1780870  45.5939320  78.7032550  17.0910720  35.2238330  77.5969420
  16.1435630  35.2577310  77.7284850  17.4160710  36.0377280  77.9818780
   7.6230260  31.5235510  75.8925410   7.9305240  30.9682400  75.1760910
   6.6930960  31.6579970  75.7098400  13.1745320  47.2402800  78.1832870
  13.1872480  46.8365090  77.3155130  12.6220540  48.0150090  78.0794300
  14.4690740  43.9619020  73.2723040  14.3587070  43.0193350  73.3972460
  14.4658990  44.3234660  74.1585800  12.5730760  42.1432640  79.5115480
  12.9899550  41.9292750  78.6768940  13.2970580  42.4005430  80.0824100
  10.0111020  39.5884340  72.6285530   9.0840300  39.5221720  72.8574000
  10.1635840  40.5264470  72.5140770   9.9980100  35.8601340  69.6252690
   9.0583770  36.0215300  69.7105150  10.3163360  36.5787020  69.0788680
  16.5192860  40.5419860  79.6031720  15.6911490  40.6112950  79.1281850
  17.1143340  41.1274170  79.1347550  14.0408310  41.1504640  73.1320780
  13.4220730  40.8124190  72.4847080  14.0232760  40.5064400  73.8399970
  13.4834870  37.3289180  80.5486590  13.0706050  38.1542890  80.8026580
  12.7510820  36.7434220  80.3562950   5.6167660  40.1149080  75.4105260
   5.2124660  39.4026330  74.9151160   5.7030780  39.7702320  76.2993300
   6.0849360  43.8016640  77.5744470   5.7877650  43.1962110  76.8952250
   7.0349180  43.8393950  77.4633830   4.3296280  36.8892290  79.1904300
   4.8810870  36.9987630  78.4157550   4.8439790  37.2629890  79.9059530
  14.1734970  47.3748510  81.2367570  13.6965530  48.1820700  81.0440180
  13.4896760  46.7226840  81.3893780   5.1767790  43.5398330  84.2252270
   4.2796320  43.7638300  84.4725670   5.2020660  43.6633270  83.2763670
  12.2173010  40.3891450  70.1393530  12.6566290  39.5513880  69.9931350
  12.9301430  41.0220850  70.2257670   4.0039010  40.4111650  82.8009640
   3.8646780  41.2834450  83.1697040   3.1220370  40.0684460  82.6557580
  10.3268390  45.3287520  74.1074770  10.7664300  46.0711850  73.6930160
  10.2655280  45.5714090  75.0313730   5.8019360  46.3533350  85.0094790
   5.7734790  46.7576300  84.1423220   5.6384330  45.4243710  84.8466390
  15.7990150  31.6434260  68.4534570  15.4862810  31.7361090  69.3533640
  16.5602620  32.2215290  68.4032000   2.3172290  39.0094060  72.9111910
   2.1969890  39.7356150  72.2993180   2.0073180  38.2396970  72.4339820
  17.7534180  47.1360450  86.3058960  18.2293900  47.6143340  86.9848040
  18.3741340  47.0677940  85.5804460  17.1567430  44.3273300  83.4658970
  17.2830490  44.0885180  82.5476150  17.1988810  43.4957840  83.9381050
  11.0184170  48.0301300  82.0353780  11.5328840  47.9409310  82.8376210
  10.1753250  48.3761000  82.3281690  12.9938570  48.3156640  71.4637780
  12.8339710  48.0259580  72.3619610  12.8285280  47.5396770  70.9283010
   5.4726950  48.0955170  73.2409400   5.2969430  47.1790710  73.0277200
   4.6182690  48.4542460  73.4807200  12.6964700  45.8244200  70.0235780
  12.0029860  45.8221490  69.3638060  13.4387560  45.4003520  69.5929950
  12.2614630  47.4506910  74.0984270  12.7171580  46.6696290  74.4122890
  12.6007150  48.1613730  74.6425450  17.0091440  36.3805760  84.4308710
  16.3935710  36.8885430  83.9024170  16.6887860  35.4804090  84.3734650
   4.7835950  32.3529130  76.2935580   4.3404100  33.1338670  75.9620100
   5.3420940  32.6759020  77.0006520   9.0705760  35.2197650  81.8970900
   8.6085130  35.4280670  82.7090840   8.6683870  34.4057000  81.5941570
  14.0710270  36.4406600  83.0267560  13.2203860  36.1412350  83.3476630
  13.9112060  36.6848610  82.1151380  11.1659980  37.9408350  85.1266350
  11.4913390  37.1072100  84.7868580  11.9540310  38.4636870  85.2744680
   7.8994770  31.9739830  71.1741410   7.2748950  31.9699700  71.8994720
   7.8124890  31.1070790  70.7777380   6.8211850  32.8976460  78.1525180
   7.1184180  33.8039290  78.0717200   7.3697410  32.4095240  77.5384750
   4.5750170  37.4762700  74.0216830   4.3491090  37.2599870  74.9263450
   3.7942700  37.9091160  73.6762800  11.8047930  37.4826070  72.6207480
  11.2056820  38.2061870  72.4371100  12.3527540  37.4202850  71.8383930
   7.0149380  38.3748280  84.6877100   6.9192980  37.4343010  84.5377500
   7.8581360  38.5963350  84.2925170  10.4112800  36.1189610  74.6510760
  10.8042370  36.4361810  73.8379450  10.7729650  35.2401490  74.7655280
   8.7204970  34.8696920  85.9107620   8.0303290  34.6769120  86.5453710
   9.4637270  35.1531560  86.4431920  10.9967940  38.7095360  78.7461540
  10.2649060  39.2182170  79.0951640  10.5992280  37.8925340  78.4450320
   7.4345330  35.3849560  77.1514030   7.4381390  34.9439510  76.3018570
   8.3296450  35.7066890  77.2585850   3.2847710  35.2676050  76.1108240
   2.9447760  35.7451280  76.8675290   2.5225030  34.8141170  75.7509340
   7.4965480  36.3861640  70.1420790   7.6178300  36.3448120  71.0906610
   7.1113990  37.2485790  69.9867520  11.4593850  34.1629040  78.1584480
  11.4766590  34.6137690  79.0026330  11.2109430  33.2634680  78.3717920
   6.5086980  38.6962780  69.5404090   5.9403880  38.2481030  68.9140000
   7.2175980  39.0555560  69.0069240  14.8864600  31.5761220  83.9970860
  15.2110370  30.8450880  84.5228840  14.9221110  31.2574860  83.0951850
   7.7353300  39.4451340  78.8979440   8.1023430  38.9709910  79.6440780
   7.5458360  40.3192910  79.2387780   5.5252670  38.4859980  81.2163650
   5.2209740  39.3651960  81.4414010   6.4799130  38.5459770  81.2521090
   4.0534460  42.6920970  71.8130500   3.2796720  42.1518590  71.6529220
   4.7829090  42.1727580  71.4748260  14.8122440  41.6886330  77.6056890
  15.5321560  42.1841620  77.2153000  14.6104260  41.0104220  76.9610760
  10.2732380  33.0824290  71.7486280   9.4596990  32.5837460  71.6731590
  10.0794330  33.9222540  71.3322630  10.1941240  41.7595390  83.4925890
  10.1278550  40.8391060  83.2383480   9.5646380  41.8570830  84.2070530
  12.9880770  37.4543940  70.0448440  13.8760390  37.7661170  69.8699780
  12.9585860  36.5816190  69.6529020   4.0971860  42.3601350  75.4509310
   4.6150530  41.5569610  75.3966200   3.6455880  42.2980490  76.2926140
   8.9841360  43.6267630  70.7236610   9.3257060  44.3709860  70.2279930
   8.1554070  43.9398750  71.0861440   4.7829520  39.7846960  85.2474560
   4.4829660  39.9304140  84.3502380   5.5540760  39.2252250  85.1547950
  10.1257970  44.5815960  83.2429690  10.1402510  43.6496920  83.0248600
   9.4183070  44.6675720  83.8819460  15.2595040  38.7655780  69.5128300
  15.1758760  39.1970000  68.6624740  15.9789230  39.2254130  69.9455120
  16.3369180  41.2223300  82.5898270  15.6117370  41.8152080  82.3927660
  16.8644640  41.2146840  81.7911640  16.2882290  45.6198040  72.2410430
  15.6458450  44.9653660  72.5154150  15.9012950  46.0253130  71.4651100
  11.8668770  42.9483470  76.0882120  12.2192590  42.3511600  75.4283490
  10.9831100  42.6227700  76.2590370   7.9532050  43.7081160  73.4952530
   8.6403180  44.2550370  73.8760120   7.1664470  44.2521890  73.5302140
   7.2559260  40.7127190  73.1077890   7.7122040  41.5232440  73.3338080
   6.9047470  40.3950330  73.9396380   9.5591870  46.2233530  80.3370190
  10.2034090  46.4292910  81.0143610   9.9221310  45.4621930  79.8841040
   3.1571040  31.0564840  73.5800410   3.0285670  31.0482740  74.5285330
   2.3333060  31.3947930  73.2291420  10.8323950  44.2265880  79.0547640
  11.4746180  43.5259040  79.1679810  11.3573300  45.0064320  78.8744530
  14.6779670  44.5114500  68.7786780  14.4517250  43.7944940  69.3711420
  14.2875870  44.2626940  67.9408530  12.6061570  45.0260780  82.2583700
  12.9417810  45.6127470  82.9361620  11.6861910  44.8953490  82.4881490
  14.2595920  42.4286440  70.4400940  13.9717620  42.8899130  71.2278820
  15.0548090  41.9684210  70.7085160   8.4350150  45.0752110  85.4271760
   8.1147020  44.3561350  85.9717450   7.7608510  45.7507180  85.5007820
   6.4764320  45.9212560  70.3704910   6.4674420  46.6542250  69.7549420
   5.5562680  45.6744140  70.4631870  11.6503750  35.3078270  80.7908560
  12.0184570  34.4873480  81.1188130  10.7901950  35.3680160  81.2064210
  15.0165780  34.2635210  71.5996120  14.3878940  34.3680880  70.8854350
  14.5217700  34.4831990  72.3890000   9.4623920  45.9840800  69.0330100
   9.5635900  45.7804790  68.1032080   8.5625660  45.7299080  69.2377880
   6.9849810  36.5421160  73.0154000   6.2765960  37.0107500  73.4567610
   7.2694290  35.8843170  73.6499190   8.6105740  37.9617860  81.0146530
   9.1090990  38.4363680  81.6798380   8.7528690  37.0381380  81.2216560
  11.0165240  33.2671820  74.4549790  10.8933020  33.2857950  73.5059300
  11.9649800  33.3150760  74.5748190   8.1042030  48.5027120  73.7277770
   8.3583530  48.4648510  72.8057140   7.1554510  48.3760450  73.7206020
   5.1884830  34.8506240  70.3904710   6.0375360  35.2876390  70.3244900
   4.8216100  35.1626500  71.2176770  15.8172600  34.1785820  81.8574920
  15.3146200  34.9191220  82.1968730  16.6329260  34.5669820  81.5411710
  14.1094610  39.4219000  75.3036280  13.1684750  39.4369230  75.4783970
  14.4238680  38.6354960  75.7496580   4.0876250  41.1038600  68.8640240
   4.8539520  40.9919960  69.4265670   4.1650940  40.4076570  68.2117010
   2.7823010  38.5363670  69.5473130   2.8626600  37.5891180  69.6590530
   3.6742760  38.8670550  69.6533790  16.1120190  46.5927850  76.9790540
  16.2367610  47.4159020  77.4514350  16.9785750  46.3818580  76.6314690
   3.5837720  48.6859060  76.6507670   4.3200200  48.1374520  76.9216240
   3.9678640  49.5515070  76.5113660   2.5896000  47.8705130  85.8393250
   3.3908730  48.1917180  86.2528650   2.0747820  47.5100710  86.5613160
   6.6940030  47.8589370  68.4733240   7.4868640  48.1478200  68.0215030
   6.1744380  47.4281540  67.7945720  11.4260630  43.9785000  85.7868660
  10.8198790  44.0016600  85.0464410  11.1214740  43.2468040  86.3235910
  12.8561000  47.7065290  84.3978070  13.8082750  47.6223310  84.3478310
  12.7089220  48.3707000  85.0711860  15.7470200  47.0859500  69.8969980
  15.4611710  46.6724640  69.0824160  15.5489750  48.0147210  69.7770500
   7.2117430  43.0792780  68.3375590   7.1068070  42.4645130  69.0636970
   7.0441650  42.5558670  67.5538600   7.3631750  41.7649580  84.3164820
   6.5977420  42.3334580  84.2319490   7.5447710  41.4725790  83.4233050
  10.4520160  42.1412810  68.9417580   9.9030260  42.5882110  69.5860320
  11.0739420  41.6362060  69.4655250  14.5055100  43.4954910  84.8739840
  15.2464570  43.8330670  84.3707300  13.7427780  43.6646970  84.3209610
   2.3416890  38.5008180  85.6779370   2.3822230  38.2022050  86.5864600
   3.1962390  38.9015790  85.5186890   6.1195280  41.1003730  70.8382880
   6.5411700  40.9343600  71.6814270   6.2446120  40.2903960  70.3438020
   4.2822700  37.0800280  83.6453860   3.7519160  36.5891230  83.0177200
   4.9510770  37.5084480  83.1111790   8.6322920  40.1241340  68.0859980
   9.1528580  39.4090360  67.7201130   9.2791320  40.7627210  68.3860490
  13.1800760  41.5469740  83.4095050  13.5941780  41.7014820  84.2585470
  12.2451760  41.6724960  83.5720830  13.6522930  38.8865900  85.4134200
  14.2343700  38.1318220  85.3254680  13.8284700  39.4173340  84.6365680
   4.7695000  34.0462650  83.7251150   4.6751870  33.4283400  83.0002020
   4.1892390  34.7728940  83.4981060   7.5356440  32.6035890  80.7578540
   7.0873740  32.6260150  79.9124090   6.9021640  32.2054910  81.3548840
   7.9415990  41.4990220  81.3790980   8.3604100  42.3422950  81.2067220
   7.0224620  41.6362260  81.1497760  10.2779890  39.2306400  82.7628820
  10.3976100  38.6347540  83.5023660  11.1373890  39.2676090  82.3430120
  12.6167790  39.7843590  81.3391330  12.0903010  40.3086210  80.7356470
  12.9599130  40.4170980  81.9701060   5.0154180  37.1736960  67.7841040
   4.8143240  36.3104320  68.1454380   4.8446230  37.0870320  66.8462640
   5.7923410  47.8043230  82.4948710   5.2544500  48.5289290  82.1757410
   6.0457370  47.3273570  81.7046050   7.0448660  35.7727750  84.0204640
   7.6348350  35.4643600  84.7082460   6.2268900  35.3007500  84.1764540
  11.8642090  35.3893560  84.2537660  11.1757610  34.7275100  84.1887650
  12.5848110  34.9431830  84.6986120  12.4942490  31.9845190  70.3127920
  12.7744780  31.1413090  70.6687340  11.7208220  32.2168300  70.8266670
   3.8136980  34.2737580  67.7718920   4.1162880  34.2805010  66.8638070
   4.5531570  33.9235440  68.2686580   8.6485620  49.0394440  82.7535360
   8.5744320  49.9429580  83.0607730   7.7464460  48.7206340  82.7257430
   7.0321910  33.2172200  68.7575120   6.6843910  32.5396190  68.1777570
   7.2334680  32.7561710  69.5718510   9.1970950  48.2052950  70.3761720
  10.0921740  48.5437920  70.3980480   9.2288580  47.4832360  69.7486000
   2.8367110  43.5780000  68.6048720   3.2741980  44.1209670  69.2606300
   3.3214840  42.7526950  68.6145060   4.6474830  44.6978040  73.7170950
   4.3470370  44.5743010  74.6174860   4.5412320  43.8386630  73.3086680
  16.1765300  46.7356620  83.0827920  15.5767290  46.7949180  82.3391840
  16.3059200  45.7961600  83.2124770  17.4166750  44.4774440  68.4197630
  16.5859710  44.5451090  68.8904860  17.5938580  45.3678560  68.1164490
  16.8723210  41.2221920  70.9231830  17.6342120  41.7918570  71.0291520
  16.8877580  40.6549120  71.6940140  17.8783180  42.0772020  75.7673760
  18.2492010  41.2939340  75.3609730  18.5185110  42.7661120  75.5891060
  14.8616940  43.4608600  81.1804080  14.0476780  43.8905760  81.4429870
  15.2691140  44.0727010  80.5673130  16.9242380  41.5156290  68.0804350
  17.1991220  42.4235170  67.9523570  16.7353120  41.4518820  69.0166340
  13.3217990  34.5401140  69.3757980  13.7402870  34.3532120  68.5354640
  13.0154050  33.6880190  69.6860910  16.8207720  39.4525280  73.0733780
  16.4451320  38.6853210  72.6415070  16.0910840  39.8347980  73.5608710
  16.2107340  38.5996800  82.7073300  15.9793430  38.3709550  81.8071250
  16.4711890  39.5196350  82.6618190  14.6495410  33.8253230  85.4853000
  15.5265590  33.8336630  85.8687000  14.6616250  33.0884070  84.8745350
  16.0958680  37.6782770  76.3741020  16.6196160  37.1845420  75.7431190
  16.6818100  37.8133130  77.1188590  16.2748400  37.7622640  79.8960570
  15.3251110  37.7286180  80.0105560  16.4561410  38.6722750  79.6610340
   1.7767000  32.0663650  68.0461850   2.4995130  32.6072590  68.3643070
   2.0491520  31.7927070  67.1703390  15.5858650  36.9356120  72.3133430
  16.0817770  36.7026990  73.0982310  15.3874720  36.0967960  71.8971070
  17.0145810  35.5717070  74.8471110  16.9045090  35.4173110  75.7853380
  17.7753400  35.0438010  74.6046520  15.3611530  31.5111200  81.3054110
  15.9983750  32.1245340  81.6713300  15.5086420  31.5471860  80.3603340
  17.9036080  33.4024990  68.0877250  18.8285390  33.2706170  67.8795540
  17.8811870  33.4817810  69.0413700  17.9774570  34.1735650  70.7133960
  17.1826070  34.1080770  71.2426870  18.1817850  35.1086290  70.7019310
  14.9192990  48.2127200  74.7072350  15.5152060  47.8911770  74.0306770
  15.1771140  47.7399020  75.4985620   2.8255560  44.6445110  84.8562980
   2.7825190  44.2738020  85.7377440   2.9566570  45.5822680  84.9964800
   6.5261590  46.2004700  80.4572700   6.2852950  46.4679260  79.5703220
   7.4664230  46.3710430  80.5123560   8.7316010  32.6637390  84.2129210
   8.6704900  33.2559220  84.9624620   9.6716390  32.5563350  84.0679470
  11.3690570  32.3207450  83.8521500  11.9830980  32.6386740  83.1902580
  11.9140130  31.8356040  84.4717360  17.7865750  48.2199080  81.2583340
  17.2924030  48.6167950  80.5410470  17.1779040  47.5948290  81.6520620
   1.8911830  31.0001710  83.9660560   2.4394820  30.8189760  83.2026670
   1.9567140  30.2095820  84.5016870   2.6643590  47.5907360  81.9760760
   2.0703910  47.4592060  82.7150800   2.6567430  46.7545500  81.5102860
  12.1098610  30.8839590  80.1790790  11.2358450  31.2174700  79.9763720
  12.0009360  30.4112770  81.0042660  13.0170590  33.0910460  81.5632510
  12.6883950  32.2762220  81.1834240  13.9652890  33.0480270  81.4398200
  15.4705200  48.8622500  78.5370080  15.0108170  49.6138310  78.1628100
  14.8417660  48.1428970  78.4784880   5.9000920  47.1710740  77.7118210
   6.4165940  46.5598100  77.1866470   6.5498300  47.6739520  78.2029220
   8.6396420  48.0619230  78.5387190   8.9274230  47.8073530  77.6620200
   9.1519640  47.5096590  79.1292760   9.8573430  31.8009430  79.1183700
   9.0745220  32.2754930  79.3980460   9.5636360  30.8964260  79.0096880
  14.4094500  32.5032530  77.1632790  14.8502590  32.4477630  76.3154390
  14.1402090  33.4190540  77.2342970  16.2733070  32.1347770  75.1741610
  16.2121470  31.1908990  75.0272630  17.0525100  32.2427860  75.7195070
   7.7427650  34.2196180  74.6299730   6.9302160  33.8453070  74.2895610
   8.2469290  33.4641260  74.9320920  12.2452630  30.8838630  75.8682800
  12.8482000  31.4558840  76.3431320  11.5045620  31.4478070  75.6456700
  15.3887230  31.2860190  71.1423080  15.5837860  32.1843640  71.4090510
  14.6017100  31.0547270  71.6356030   2.1848520  46.9673360  71.5815700
   1.6596140  47.3481390  70.8777660   2.1093100  47.5924130  72.3025410
   3.5738990  32.6320960  70.1799390   4.1031750  31.8450760  70.0507340
   4.2067310  33.3112150  70.4134920   5.7676830  32.3696100  73.2344780
   5.1379570  31.6683410  73.4014910   5.2281970  33.1300230  73.0177940
   8.7068780  48.9835330  85.9055390   9.6336090  48.7479600  85.9491350
   8.6919210  49.8107330  85.4241420  16.9413840  48.5260900  72.9029640
  17.1166030  47.8398640  72.2590560  16.2435410  49.0507950  72.5106310
   5.8932390  31.6480080  85.6697270   5.6116660  32.1513680  84.9058090
   6.2752090  30.8501830  85.3039400   4.7841490  48.9155740  70.4564950
   5.5160310  48.6315020  69.9088840   5.0435160  48.6769020  71.3464330
   3.9456280  45.0320470  70.4611280   3.3165160  45.5005570  71.0097110
   4.0604110  44.1869690  70.8957470  12.4947850  31.0633660  86.2477740
  12.3813300  31.3828270  87.1429260  13.3117590  31.4646170  85.9515020
  15.2746340  48.2105190  85.7296430  16.0671660  47.7154420  85.5222390
  15.5679490  48.8895330  86.3372040  11.4006000  39.0826130  56.6112480
  11.3200050  38.1680740  56.3404190  10.9870420  39.5793200  55.9052190
   9.5324040  40.8605150  58.4921750   8.7566140  40.3805590  58.7820320
  10.1836970  40.1810800  58.3177910   3.5489870  41.1724960  59.3697510
   2.7174750  40.9173670  59.7694020   4.1570850  41.2435730  60.1055430
  13.5531470  45.2665340  57.2720880  13.0913000  44.4952580  57.6008050
  14.3657020  45.2931410  57.7773330   3.5291130  45.2065050  59.5655530
   3.8319170  44.3162790  59.3865750   4.2734720  45.7635270  59.3377780
   9.7794780  47.5523350  56.8924870   9.1606220  48.0080850  56.3219310
  10.6346560  47.7074810  56.4914570   8.9733030  43.5362340  58.4991910
   8.9041310  42.5952280  58.3381040   9.7352890  43.6263750  59.0714480
  10.0038200  36.3432720  58.7260840  10.3803020  35.4704600  58.6134510
   9.9057710  36.6791420  57.8351280   4.1343210  34.7158350  54.1878280
   4.2409960  35.6162080  54.4947040   3.2235570  34.6676320  53.8972930
  13.7862320  33.8383160  55.6589180  14.6071940  33.3479730  55.7014660
  13.8196400  34.4280820  56.4121020   5.9750940  37.6844720  58.5203460
   6.4829160  38.1825690  59.1608480   6.5064180  36.9079920  58.3442820
  18.0761870  35.8549910  62.2232810  17.3714040  36.2431620  61.7047920
  18.3419790  36.5500200  62.8253740   4.2587040  32.3243280  62.7866880
   4.2605480  32.8415670  61.9812780   3.4291350  31.8473460  62.7636810
  10.6458130  42.4362590  54.2856780  10.0275400  42.9012040  53.7219500
  11.1581380  43.1290070  54.7026290   5.5089890  41.9638460  60.9640380
   5.1759270  42.5907380  61.6061450   5.6856570  42.4900340  60.1842050
  14.0223800  35.7783540  58.4316720  13.3179370  36.0668430  59.0119830
  14.3835960  36.5883650  58.0716280   3.9402370  34.0353240  60.7937330
   4.2819180  34.8795290  60.4991200   3.0018180  34.1836980  60.9102670
   4.7208990  43.9319260  62.7789560   5.3382990  44.6070340  62.4974010
   3.8602110  44.3407240  62.6877060  15.6386580  45.3958670  60.6944200
  14.9550100  46.0657780  60.6860870  16.1780870  45.5939320  59.9289060
  17.0910720  35.2238330  58.8225930  16.1435630  35.2577310  58.9541360
  17.4160710  36.0377280  59.2075290   7.6230260  31.5235510  57.1181920
   7.9305240  30.9682400  56.4017420   6.6930960  31.6579970  56.9354910
  13.1745320  47.2402800  59.4089380  13.1872480  46.8365090  58.5411640
  12.6220540  48.0150090  59.3050810  14.4690740  43.9619020  54.4979550
  14.3587070  43.0193350  54.6228970  14.4658990  44.3234660  55.3842310
  12.5730760  42.1432640  60.7371990  12.9899550  41.9292750  59.9025450
  13.2970580  42.4005430  61.3080610  10.0111020  39.5884340  53.8542040
   9.0840300  39.5221720  54.0830510  10.1635840  40.5264470  53.7397280
   9.9980100  35.8601340  50.8509200   9.0583770  36.0215300  50.9361660
  10.3163360  36.5787020  50.3045190  16.5192860  40.5419860  60.8288230
  15.6911490  40.6112950  60.3538360  17.1143340  41.1274170  60.3604060
  14.0408310  41.1504640  54.3577290  13.4220730  40.8124190  53.7103590
  14.0232760  40.5064400  55.0656480  13.4834870  37.3289180  61.7743100
  13.0706050  38.1542890  62.0283090  12.7510820  36.7434220  61.5819460
   5.6167660  40.1149080  56.6361770   5.2124660  39.4026330  56.1407670
   5.7030780  39.7702320  57.5249810   6.0849360  43.8016640  58.8000980
   5.7877650  43.1962110  58.1208760   7.0349180  43.8393950  58.6890340
   4.3296280  36.8892290  60.4160810   4.8810870  36.9987630  59.6414060
   4.8439790  37.2629890  61.1316040  14.1734970  47.3748510  62.4624080
  13.6965530  48.1820700  62.2696690  13.4896760  46.7226840  62.6150290
   5.1767790  43.5398330  65.4508780   4.2796320  43.7638300  65.6982180
   5.2020660  43.6633270  64.5020180  12.2173010  40.3891450  51.3650040
  12.6566290  39.5513880  51.2187860  12.9301430  41.0220850  51.4514180
   4.0039010  40.4111650  64.0266150   3.8646780  41.2834450  64.3953550
   3.1220370  40.0684460  63.8814090  10.3268390  45.3287520  55.3331280
  10.7664300  46.0711850  54.9186670  10.2655280  45.5714090  56.2570240
   5.8019360  46.3533350  66.2351300   5.7734790  46.7576300  65.3679730
   5.6384330  45.4243710  66.0722900  15.7990150  31.6434260  49.6791080
  15.4862810  31.7361090  50.5790150  16.5602620  32.2215290  49.6288510
   2.3172290  39.0094060  54.1368420   2.1969890  39.7356150  53.5249690
   2.0073180  38.2396970  53.6596330  17.7534180  47.1360450  67.5315470
  18.2293900  47.6143340  68.2104550  18.3741340  47.0677940  66.8060970
  17.1567430  44.3273300  64.6915480  17.2830490  44.0885180  63.7732660
  17.1988810  43.4957840  65.1637560  11.0184170  48.0301300  63.2610290
  11.5328840  47.9409310  64.0632720  10.1753250  48.3761000  63.5538200
  12.9938570  48.3156640  52.6894290  12.8339710  48.0259580  53.5876120
  12.8285280  47.5396770  52.1539520   5.4726950  48.0955170  54.4665910
   5.2969430  47.1790710  54.2533710   4.6182690  48.4542460  54.7063710
  12.6964700  45.8244200  51.2492290  12.0029860  45.8221490  50.5894570
  13.4387560  45.4003520  50.8186460  12.2614630  47.4506910  55.3240780
  12.7171580  46.6696290  55.6379400  12.6007150  48.1613730  55.8681960
  17.0091440  36.3805760  65.6565220  16.3935710  36.8885430  65.1280680
  16.6887860  35.4804090  65.5991160   4.7835950  32.3529130  57.5192090
   4.3404100  33.1338670  57.1876610   5.3420940  32.6759020  58.2263030
   9.0705760  35.2197650  63.1227410   8.6085130  35.4280670  63.9347350
   8.6683870  34.4057000  62.8198080  14.0710270  36.4406600  64.2524070
  13.2203860  36.1412350  64.5733140  13.9112060  36.6848610  63.3407890
  11.1659980  37.9408350  66.3522860  11.4913390  37.1072100  66.0125090
  11.9540310  38.4636870  66.5001190   7.8994770  31.9739830  52.3997920
   7.2748950  31.9699700  53.1251230   7.8124890  31.1070790  52.0033890
   6.8211850  32.8976460  59.3781690   7.1184180  33.8039290  59.2973710
   7.3697410  32.4095240  58.7641260   4.5750170  37.4762700  55.2473340
   4.3491090  37.2599870  56.1519960   3.7942700  37.9091160  54.9019310
  11.8047930  37.4826070  53.8463990  11.2056820  38.2061870  53.6627610
  12.3527540  37.4202850  53.0640440   7.0149380  38.3748280  65.9133610
   6.9192980  37.4343010  65.7634010   7.8581360  38.5963350  65.5181680
  10.4112800  36.1189610  55.8767270  10.8042370  36.4361810  55.0635960
  10.7729650  35.2401490  55.9911790   8.7204970  34.8696920  67.1364130
   8.0303290  34.6769120  67.7710220   9.4637270  35.1531560  67.6688430
  10.9967940  38.7095360  59.9718050  10.2649060  39.2182170  60.3208150
  10.5992280  37.8925340  59.6706830   7.4345330  35.3849560  58.3770540
   7.4381390  34.9439510  57.5275080   8.3296450  35.7066890  58.4842360
   3.2847710  35.2676050  57.3364750   2.9447760  35.7451280  58.0931800
   2.5225030  34.8141170  56.9765850   7.4965480  36.3861640  51.3677300
   7.6178300  36.3448120  52.3163120   7.1113990  37.2485790  51.2124030
  11.4593850  34.1629040  59.3840990  11.4766590  34.6137690  60.2282840
  11.2109430  33.2634680  59.5974430   6.5086980  38.6962780  50.7660600
   5.9403880  38.2481030  50.1396510   7.2175980  39.0555560  50.2325750
  14.8864600  31.5761220  65.2227370  15.2110370  30.8450880  65.7485350
  14.9221110  31.2574860  64.3208360   7.7353300  39.4451340  60.1235950
   8.1023430  38.9709910  60.8697290   7.5458360  40.3192910  60.4644290
   5.5252670  38.4859980  62.4420160   5.2209740  39.3651960  62.6670520
   6.4799130  38.5459770  62.4777600   4.0534460  42.6920970  53.0387010
   3.2796720  42.1518590  52.8785730   4.7829090  42.1727580  52.7004770
  14.8122440  41.6886330  58.8313400  15.5321560  42.1841620  58.4409510
  14.6104260  41.0104220  58.1867270  10.2732380  33.0824290  52.9742790
   9.4596990  32.5837460  52.8988100  10.0794330  33.9222540  52.5579140
  10.1941240  41.7595390  64.7182400  10.1278550  40.8391060  64.4639990
   9.5646380  41.8570830  65.4327040  12.9880770  37.4543940  51.2704950
  13.8760390  37.7661170  51.0956290  12.9585860  36.5816190  50.8785530
   4.0971860  42.3601350  56.6765820   4.6150530  41.5569610  56.6222710
   3.6455880  42.2980490  57.5182650   8.9841360  43.6267630  51.9493120
   9.3257060  44.3709860  51.4536440   8.1554070  43.9398750  52.3117950
   4.7829520  39.7846960  66.4731070   4.4829660  39.9304140  65.5758890
   5.5540760  39.2252250  66.3804460  10.1257970  44.5815960  64.4686200
  10.1402510  43.6496920  64.2505110   9.4183070  44.6675720  65.1075970
  15.2595040  38.7655780  50.7384810  15.1758760  39.1970000  49.8881250
  15.9789230  39.2254130  51.1711630  16.3369180  41.2223300  63.8154780
  15.6117370  41.8152080  63.6184170  16.8644640  41.2146840  63.0168150
  16.2882290  45.6198040  53.4666940  15.6458450  44.9653660  53.7410660
  15.9012950  46.0253130  52.6907610  11.8668770  42.9483470  57.3138630
  12.2192590  42.3511600  56.6540000  10.9831100  42.6227700  57.4846880
   7.9532050  43.7081160  54.7209040   8.6403180  44.2550370  55.1016630
   7.1664470  44.2521890  54.7558650   7.2559260  40.7127190  54.3334400
   7.7122040  41.5232440  54.5594590   6.9047470  40.3950330  55.1652890
   9.5591870  46.2233530  61.5626700  10.2034090  46.4292910  62.2400120
   9.9221310  45.4621930  61.1097550   3.1571040  31.0564840  54.8056920
   3.0285670  31.0482740  55.7541840   2.3333060  31.3947930  54.4547930
  10.8323950  44.2265880  60.2804150  11.4746180  43.5259040  60.3936320
  11.3573300  45.0064320  60.1001040  14.6779670  44.5114500  50.0043290
  14.4517250  43.7944940  50.5967930  14.2875870  44.2626940  49.1665040
  12.6061570  45.0260780  63.4840210  12.9417810  45.6127470  64.1618130
  11.6861910  44.8953490  63.7138000  14.2595920  42.4286440  51.6657450
  13.9717620  42.8899130  52.4535330  15.0548090  41.9684210  51.9341670
   8.4350150  45.0752110  66.6528270   8.1147020  44.3561350  67.1973960
   7.7608510  45.7507180  66.7264330   6.4764320  45.9212560  51.5961420
   6.4674420  46.6542250  50.9805930   5.5562680  45.6744140  51.6888380
  11.6503750  35.3078270  62.0165070  12.0184570  34.4873480  62.3444640
  10.7901950  35.3680160  62.4320720  15.0165780  34.2635210  52.8252630
  14.3878940  34.3680880  52.1110860  14.5217700  34.4831990  53.6146510
   9.4623920  45.9840800  50.2586610   9.5635900  45.7804790  49.3288590
   8.5625660  45.7299080  50.4634390   6.9849810  36.5421160  54.2410510
   6.2765960  37.0107500  54.6824120   7.2694290  35.8843170  54.8755700
   8.6105740  37.9617860  62.2403040   9.1090990  38.4363680  62.9054890
   8.7528690  37.0381380  62.4473070  11.0165240  33.2671820  55.6806300
  10.8933020  33.2857950  54.7315810  11.9649800  33.3150760  55.8004700
   8.1042030  48.5027120  54.9534280   8.3583530  48.4648510  54.0313650
   7.1554510  48.3760450  54.9462530   5.1884830  34.8506240  51.6161220
   6.0375360  35.2876390  51.5501410   4.8216100  35.1626500  52.4433280
  15.8172600  34.1785820  63.0831430  15.3146200  34.9191220  63.4225240
  16.6329260  34.5669820  62.7668220  14.1094610  39.4219000  56.5292790
  13.1684750  39.4369230  56.7040480  14.4238680  38.6354960  56.9753090
   4.0876250  41.1038600  50.0896750   4.8539520  40.9919960  50.6522180
   4.1650940  40.4076570  49.4373520   2.7823010  38.5363670  50.7729640
   2.8626600  37.5891180  50.8847040   3.6742760  38.8670550  50.8790300
  16.1120190  46.5927850  58.2047050  16.2367610  47.4159020  58.6770860
  16.9785750  46.3818580  57.8571200   3.5837720  48.6859060  57.8764180
   4.3200200  48.1374520  58.1472750   3.9678640  49.5515070  57.7370170
   2.5896000  47.8705130  67.0649760   3.3908730  48.1917180  67.4785160
   2.0747820  47.5100710  67.7869670   6.6940030  47.8589370  49.6989750
   7.4868640  48.1478200  49.2471540   6.1744380  47.4281540  49.0202230
  11.4260630  43.9785000  67.0125170  10.8198790  44.0016600  66.2720920
  11.1214740  43.2468040  67.5492420  12.8561000  47.7065290  65.6234580
  13.8082750  47.6223310  65.5734820  12.7089220  48.3707000  66.2968370
  15.7470200  47.0859500  51.1226490  15.4611710  46.6724640  50.3080670
  15.5489750  48.0147210  51.0027010   7.2117430  43.0792780  49.5632100
   7.1068070  42.4645130  50.2893480   7.0441650  42.5558670  48.7795110
   7.3631750  41.7649580  65.5421330   6.5977420  42.3334580  65.4576000
   7.5447710  41.4725790  64.6489560  10.4520160  42.1412810  50.1674090
   9.9030260  42.5882110  50.8116830  11.0739420  41.6362060  50.6911760
  14.5055100  43.4954910  66.0996350  15.2464570  43.8330670  65.5963810
  13.7427780  43.6646970  65.5466120   2.3416890  38.5008180  66.9035880
   2.3822230  38.2022050  67.8121110   3.1962390  38.9015790  66.7443400
   6.1195280  41.1003730  52.0639390   6.5411700  40.9343600  52.9070780
   6.2446120  40.2903960  51.5694530   4.2822700  37.0800280  64.8710370
   3.7519160  36.5891230  64.2433710   4.9510770  37.5084480  64.3368300
   8.6322920  40.1241340  49.3116490   9.1528580  39.4090360  48.9457640
   9.2791320  40.7627210  49.6117000  13.1800760  41.5469740  64.6351560
  13.5941780  41.7014820  65.4841980  12.2451760  41.6724960  64.7977340
  13.6522930  38.8865900  66.6390710  14.2343700  38.1318220  66.5511190
  13.8284700  39.4173340  65.8622190   4.7695000  34.0462650  64.9507660
   4.6751870  33.4283400  64.2258530   4.1892390  34.7728940  64.7237570
   7.5356440  32.6035890  61.9835050   7.0873740  32.6260150  61.1380600
   6.9021640  32.2054910  62.5805350   7.9415990  41.4990220  62.6047490
   8.3604100  42.3422950  62.4323730   7.0224620  41.6362260  62.3754270
  10.2779890  39.2306400  63.9885330  10.3976100  38.6347540  64.7280170
  11.1373890  39.2676090  63.5686630  12.6167790  39.7843590  62.5647840
  12.0903010  40.3086210  61.9612980  12.9599130  40.4170980  63.1957570
   5.0154180  37.1736960  49.0097550   4.8143240  36.3104320  49.3710890
   4.8446230  37.0870320  48.0719150   5.7923410  47.8043230  63.7205220
   5.2544500  48.5289290  63.4013920   6.0457370  47.3273570  62.9302560
   7.0448660  35.7727750  65.2461150   7.6348350  35.4643600  65.9338970
   6.2268900  35.3007500  65.4021050  11.8642090  35.3893560  65.4794170
  11.1757610  34.7275100  65.4144160  12.5848110  34.9431830  65.9242630
  12.4942490  31.9845190  51.5384430  12.7744780  31.1413090  51.8943850
  11.7208220  32.2168300  52.0523180   3.8136980  34.2737580  48.9975430
   4.1162880  34.2805010  48.0894580   4.5531570  33.9235440  49.4943090
   8.6485620  49.0394440  63.9791870   8.5744320  49.9429580  64.2864240
   7.7464460  48.7206340  63.9513940   7.0321910  33.2172200  49.9831630
   6.6843910  32.5396190  49.4034080   7.2334680  32.7561710  50.7975020
   9.1970950  48.2052950  51.6018230  10.0921740  48.5437920  51.6236990
   9.2288580  47.4832360  50.9742510   2.8367110  43.5780000  49.8305230
   3.2741980  44.1209670  50.4862810   3.3214840  42.7526950  49.8401570
   4.6474830  44.6978040  54.9427460   4.3470370  44.5743010  55.8431370
   4.5412320  43.8386630  54.5343190  16.1765300  46.7356620  64.3084430
  15.5767290  46.7949180  63.5648350  16.3059200  45.7961600  64.4381280
  17.4166750  44.4774440  49.6454140  16.5859710  44.5451090  50.1161370
  17.5938580  45.3678560  49.3421000  16.8723210  41.2221920  52.1488340
  17.6342120  41.7918570  52.2548030  16.8877580  40.6549120  52.9196650
  17.8783180  42.0772020  56.9930270  18.2492010  41.2939340  56.5866240
  18.5185110  42.7661120  56.8147570  14.8616940  43.4608600  62.4060590
  14.0476780  43.8905760  62.6686380  15.2691140  44.0727010  61.7929640
  16.9242380  41.5156290  49.3060860  17.1991220  42.4235170  49.1780080
  16.7353120  41.4518820  50.2422850  13.3217990  34.5401140  50.6014490
  13.7402870  34.3532120  49.7611150  13.0154050  33.6880190  50.9117420
  16.8207720  39.4525280  54.2990290  16.4451320  38.6853210  53.8671580
  16.0910840  39.8347980  54.7865220  16.2107340  38.5996800  63.9329810
  15.9793430  38.3709550  63.0327760  16.4711890  39.5196350  63.8874700
  14.6495410  33.8253230  66.7109510  15.5265590  33.8336630  67.0943510
  14.6616250  33.0884070  66.1001860  16.0958680  37.6782770  57.5997530
  16.6196160  37.1845420  56.9687700  16.6818100  37.8133130  58.3445100
  16.2748400  37.7622640  61.1217080  15.3251110  37.7286180  61.2362070
  16.4561410  38.6722750  60.8866850   1.7767000  32.0663650  49.2718360
   2.4995130  32.6072590  49.5899580   2.0491520  31.7927070  48.3959900
  15.5858650  36.9356120  53.5389940  16.0817770  36.7026990  54.3238820
  15.3874720  36.0967960  53.1227580  17.0145810  35.5717070  56.0727620
  16.9045090  35.4173110  57.0109890  17.7753400  35.0438010  55.8303030
  15.3611530  31.5111200  62.5310620  15.9983750  32.1245340  62.8969810
  15.5086420  31.5471860  61.5859850  17.9036080  33.4024990  49.3133760
  18.8285390  33.2706170  49.1052050  17.8811870  33.4817810  50.2670210
  17.9774570  34.1735650  51.9390470  17.1826070  34.1080770  52.4683380
  18.1817850  35.1086290  51.9275820  14.9192990  48.2127200  55.9328860
  15.5152060  47.8911770  55.2563280  15.1771140  47.7399020  56.7242130
   2.8255560  44.6445110  66.0819490   2.7825190  44.2738020  66.9633950
   2.9566570  45.5822680  66.2221310   6.5261590  46.2004700  61.6829210
   6.2852950  46.4679260  60.7959730   7.4664230  46.3710430  61.7380070
   8.7316010  32.6637390  65.4385720   8.6704900  33.2559220  66.1881130
   9.6716390  32.5563350  65.2935980  11.3690570  32.3207450  65.0778010
  11.9830980  32.6386740  64.4159090  11.9140130  31.8356040  65.6973870
  17.7865750  48.2199080  62.4839850  17.2924030  48.6167950  61.7666980
  17.1779040  47.5948290  62.8777130   1.8911830  31.0001710  65.1917070
   2.4394820  30.8189760  64.4283180   1.9567140  30.2095820  65.7273380
   2.6643590  47.5907360  63.2017270   2.0703910  47.4592060  63.9407310
   2.6567430  46.7545500  62.7359370  12.1098610  30.8839590  61.4047300
  11.2358450  31.2174700  61.2020230  12.0009360  30.4112770  62.2299170
  13.0170590  33.0910460  62.7889020  12.6883950  32.2762220  62.4090750
  13.9652890  33.0480270  62.6654710  15.4705200  48.8622500  59.7626590
  15.0108170  49.6138310  59.3884610  14.8417660  48.1428970  59.7041390
   5.9000920  47.1710740  58.9374720   6.4165940  46.5598100  58.4122980
   6.5498300  47.6739520  59.4285730   8.6396420  48.0619230  59.7643700
   8.9274230  47.8073530  58.8876710   9.1519640  47.5096590  60.3549270
   9.8573430  31.8009430  60.3440210   9.0745220  32.2754930  60.6236970
   9.5636360  30.8964260  60.2353390  14.4094500  32.5032530  58.3889300
  14.8502590  32.4477630  57.5410900  14.1402090  33.4190540  58.4599480
  16.2733070  32.1347770  56.3998120  16.2121470  31.1908990  56.2529140
  17.0525100  32.2427860  56.9451580   7.7427650  34.2196180  55.8556240
   6.9302160  33.8453070  55.5152120   8.2469290  33.4641260  56.1577430
  12.2452630  30.8838630  57.0939310  12.8482000  31.4558840  57.5687830
  11.5045620  31.4478070  56.8713210  15.3887230  31.2860190  52.3679590
  15.5837860  32.1843640  52.6347020  14.6017100  31.0547270  52.8612540
   2.1848520  46.9673360  52.8072210   1.6596140  47.3481390  52.1034170
   2.1093100  47.5924130  53.5281920   3.5738990  32.6320960  51.4055900
   4.1031750  31.8450760  51.2763850   4.2067310  33.3112150  51.6391430
   5.7676830  32.3696100  54.4601290   5.1379570  31.6683410  54.6271420
   5.2281970  33.1300230  54.2434450   8.7068780  48.9835330  67.1311900
   9.6336090  48.7479600  67.1747860   8.6919210  49.8107330  66.6497930
  16.9413840  48.5260900  54.1286150  17.1166030  47.8398640  53.4847070
  16.2435410  49.0507950  53.7362820   5.8932390  31.6480080  66.8953780
   5.6116660  32.1513680  66.1314600   6.2752090  30.8501830  66.5295910
   4.7841490  48.9155740  51.6821460   5.5160310  48.6315020  51.1345350
   5.0435160  48.6769020  52.5720840   3.9456280  45.0320470  51.6867790
   3.3165160  45.5005570  52.2353620   4.0604110  44.1869690  52.1213980
  12.4947850  31.0633660  67.4734250  12.3813300  31.3828270  68.3685770
  13.3117590  31.4646170  67.1771530  15.2746340  48.2105190  66.9552940
  16.0671660  47.7154420  66.7478900  15.5679490  48.8895330  67.5628550
  11.4006000  39.0826130  37.8368990  11.3200050  38.1680740  37.5660700
  10.9870420  39.5793200  37.1308700   9.5324040  40.8605150  39.7178260
   8.7566140  40.3805590  40.0076830  10.1836970  40.1810800  39.5434420
   3.5489870  41.1724960  40.5954020   2.7174750  40.9173670  40.9950530
   4.1570850  41.2435730  41.3311940  13.5531470  45.2665340  38.4977390
  13.0913000  44.4952580  38.8264560  14.3657020  45.2931410  39.0029840
   3.5291130  45.2065050  40.7912040   3.8319170  44.3162790  40.6122260
   4.2734720  45.7635270  40.5634290   9.7794780  47.5523350  38.1181380
   9.1606220  48.0080850  37.5475820  10.6346560  47.7074810  37.7171080
   8.9733030  43.5362340  39.7248420   8.9041310  42.5952280  39.5637550
   9.7352890  43.6263750  40.2970990  10.0038200  36.3432720  39.9517350
  10.3803020  35.4704600  39.8391020   9.9057710  36.6791420  39.0607790
   4.1343210  34.7158350  35.4134790   4.2409960  35.6162080  35.7203550
   3.2235570  34.6676320  35.1229440  13.7862320  33.8383160  36.8845690
  14.6071940  33.3479730  36.9271170  13.8196400  34.4280820  37.6377530
   5.9750940  37.6844720  39.7459970   6.4829160  38.1825690  40.3864990
   6.5064180  36.9079920  39.5699330  18.0761870  35.8549910  43.4489320
  17.3714040  36.2431620  42.9304430  18.3419790  36.5500200  44.0510250
   4.2587040  32.3243280  44.0123390   4.2605480  32.8415670  43.2069290
   3.4291350  31.8473460  43.9893320  10.6458130  42.4362590  35.5113290
  10.0275400  42.9012040  34.9476010  11.1581380  43.1290070  35.9282800
   5.5089890  41.9638460  42.1896890   5.1759270  42.5907380  42.8317960
   5.6856570  42.4900340  41.4098560  14.0223800  35.7783540  39.6573230
  13.3179370  36.0668430  40.2376340  14.3835960  36.5883650  39.2972790
   3.9402370  34.0353240  42.0193840   4.2819180  34.8795290  41.7247710
   3.0018180  34.1836980  42.1359180   4.7208990  43.9319260  44.0046070
   5.3382990  44.6070340  43.7230520   3.8602110  44.3407240  43.9133570
  15.6386580  45.3958670  41.9200710  14.9550100  46.0657780  41.9117380
  16.1780870  45.5939320  41.1545570  17.0910720  35.2238330  40.0482440
  16.1435630  35.2577310  40.1797870  17.4160710  36.0377280  40.4331800
   7.6230260  31.5235510  38.3438430   7.9305240  30.9682400  37.6273930
   6.6930960  31.6579970  38.1611420  13.1745320  47.2402800  40.6345890
  13.1872480  46.8365090  39.7668150  12.6220540  48.0150090  40.5307320
  14.4690740  43.9619020  35.7236060  14.3587070  43.0193350  35.8485480
  14.4658990  44.3234660  36.6098820  12.5730760  42.1432640  41.9628500
  12.9899550  41.9292750  41.1281960  13.2970580  42.4005430  42.5337120
  10.0111020  39.5884340  35.0798550   9.0840300  39.5221720  35.3087020
  10.1635840  40.5264470  34.9653790   9.9980100  35.8601340  32.0765710
   9.0583770  36.0215300  32.1618170  10.3163360  36.5787020  31.5301700
  16.5192860  40.5419860  42.0544740  15.6911490  40.6112950  41.5794870
  17.1143340  41.1274170  41.5860570  14.0408310  41.1504640  35.5833800
  13.4220730  40.8124190  34.9360100  14.0232760  40.5064400  36.2912990
  13.4834870  37.3289180  42.9999610  13.0706050  38.1542890  43.2539600
  12.7510820  36.7434220  42.8075970   5.6167660  40.1149080  37.8618280
   5.2124660  39.4026330  37.3664180   5.7030780  39.7702320  38.7506320
   6.0849360  43.8016640  40.0257490   5.7877650  43.1962110  39.3465270
   7.0349180  43.8393950  39.9146850   4.3296280  36.8892290  41.6417320
   4.8810870  36.9987630  40.8670570   4.8439790  37.2629890  42.3572550
  14.1734970  47.3748510  43.6880590  13.6965530  48.1820700  43.4953200
  13.4896760  46.7226840  43.8406800   5.1767790  43.5398330  46.6765290
   4.2796320  43.7638300  46.9238690   5.2020660  43.6633270  45.7276690
  12.2173010  40.3891450  32.5906550  12.6566290  39.5513880  32.4444370
  12.9301430  41.0220850  32.6770690   4.0039010  40.4111650  45.2522660
   3.8646780  41.2834450  45.6210060   3.1220370  40.0684460  45.1070600
  10.3268390  45.3287520  36.5587790  10.7664300  46.0711850  36.1443180
  10.2655280  45.5714090  37.4826750   5.8019360  46.3533350  47.4607810
   5.7734790  46.7576300  46.5936240   5.6384330  45.4243710  47.2979410
  15.7990150  31.6434260  30.9047590  15.4862810  31.7361090  31.8046660
  16.5602620  32.2215290  30.8545020   2.3172290  39.0094060  35.3624930
   2.1969890  39.7356150  34.7506200   2.0073180  38.2396970  34.8852840
  17.7534180  47.1360450  48.7571980  18.2293900  47.6143340  49.4361060
  18.3741340  47.0677940  48.0317480  17.1567430  44.3273300  45.9171990
  17.2830490  44.0885180  44.9989170  17.1988810  43.4957840  46.3894070
  11.0184170  48.0301300  44.4866800  11.5328840  47.9409310  45.2889230
  10.1753250  48.3761000  44.7794710  12.9938570  48.3156640  33.9150800
  12.8339710  48.0259580  34.8132630  12.8285280  47.5396770  33.3796030
   5.4726950  48.0955170  35.6922420   5.2969430  47.1790710  35.4790220
   4.6182690  48.4542460  35.9320220  12.6964700  45.8244200  32.4748800
  12.0029860  45.8221490  31.8151080  13.4387560  45.4003520  32.0442970
  12.2614630  47.4506910  36.5497290  12.7171580  46.6696290  36.8635910
  12.6007150  48.1613730  37.0938470  17.0091440  36.3805760  46.8821730
  16.3935710  36.8885430  46.3537190  16.6887860  35.4804090  46.8247670
   4.7835950  32.3529130  38.7448600   4.3404100  33.1338670  38.4133120
   5.3420940  32.6759020  39.4519540   9.0705760  35.2197650  44.3483920
   8.6085130  35.4280670  45.1603860   8.6683870  34.4057000  44.0454590
  14.0710270  36.4406600  45.4780580  13.2203860  36.1412350  45.7989650
  13.9112060  36.6848610  44.5664400  11.1659980  37.9408350  47.5779370
  11.4913390  37.1072100  47.2381600  11.9540310  38.4636870  47.7257700
   7.8994770  31.9739830  33.6254430   7.2748950  31.9699700  34.3507740
   7.8124890  31.1070790  33.2290400   6.8211850  32.8976460  40.6038200
   7.1184180  33.8039290  40.5230220   7.3697410  32.4095240  39.9897770
   4.5750170  37.4762700  36.4729850   4.3491090  37.2599870  37.3776470
   3.7942700  37.9091160  36.1275820  11.8047930  37.4826070  35.0720500
  11.2056820  38.2061870  34.8884120  12.3527540  37.4202850  34.2896950
   7.0149380  38.3748280  47.1390120   6.9192980  37.4343010  46.9890520
   7.8581360  38.5963350  46.7438190  10.4112800  36.1189610  37.1023780
  10.8042370  36.4361810  36.2892470  10.7729650  35.2401490  37.2168300
   8.7204970  34.8696920  48.3620640   8.0303290  34.6769120  48.9966730
   9.4637270  35.1531560  48.8944940  10.9967940  38.7095360  41.1974560
  10.2649060  39.2182170  41.5464660  10.5992280  37.8925340  40.8963340
   7.4345330  35.3849560  39.6027050   7.4381390  34.9439510  38.7531590
   8.3296450  35.7066890  39.7098870   3.2847710  35.2676050  38.5621260
   2.9447760  35.7451280  39.3188310   2.5225030  34.8141170  38.2022360
   7.4965480  36.3861640  32.5933810   7.6178300  36.3448120  33.5419630
   7.1113990  37.2485790  32.4380540  11.4593850  34.1629040  40.6097500
  11.4766590  34.6137690  41.4539350  11.2109430  33.2634680  40.8230940
   6.5086980  38.6962780  31.9917110   5.9403880  38.2481030  31.3653020
   7.2175980  39.0555560  31.4582260  14.8864600  31.5761220  46.4483880
  15.2110370  30.8450880  46.9741860  14.9221110  31.2574860  45.5464870
   7.7353300  39.4451340  41.3492460   8.1023430  38.9709910  42.0953800
   7.5458360  40.3192910  41.6900800   5.5252670  38.4859980  43.6676670
   5.2209740  39.3651960  43.8927030   6.4799130  38.5459770  43.7034110
   4.0534460  42.6920970  34.2643520   3.2796720  42.1518590  34.1042240
   4.7829090  42.1727580  33.9261280  14.8122440  41.6886330  40.0569910
  15.5321560  42.1841620  39.6666020  14.6104260  41.0104220  39.4123780
  10.2732380  33.0824290  34.1999300   9.4596990  32.5837460  34.1244610
  10.0794330  33.9222540  33.7835650  10.1941240  41.7595390  45.9438910
  10.1278550  40.8391060  45.6896500   9.5646380  41.8570830  46.6583550
  12.9880770  37.4543940  32.4961460  13.8760390  37.7661170  32.3212800
  12.9585860  36.5816190  32.1042040   4.0971860  42.3601350  37.9022330
   4.6150530  41.5569610  37.8479220   3.6455880  42.2980490  38.7439160
   8.9841360  43.6267630  33.1749630   9.3257060  44.3709860  32.6792950
   8.1554070  43.9398750  33.5374460   4.7829520  39.7846960  47.6987580
   4.4829660  39.9304140  46.8015400   5.5540760  39.2252250  47.6060970
  10.1257970  44.5815960  45.6942710  10.1402510  43.6496920  45.4761620
   9.4183070  44.6675720  46.3332480  15.2595040  38.7655780  31.9641320
  15.1758760  39.1970000  31.1137760  15.9789230  39.2254130  32.3968140
  16.3369180  41.2223300  45.0411290  15.6117370  41.8152080  44.8440680
  16.8644640  41.2146840  44.2424660  16.2882290  45.6198040  34.6923450
  15.6458450  44.9653660  34.9667170  15.9012950  46.0253130  33.9164120
  11.8668770  42.9483470  38.5395140  12.2192590  42.3511600  37.8796510
  10.9831100  42.6227700  38.7103390   7.9532050  43.7081160  35.9465550
   8.6403180  44.2550370  36.3273140   7.1664470  44.2521890  35.9815160
   7.2559260  40.7127190  35.5590910   7.7122040  41.5232440  35.7851100
   6.9047470  40.3950330  36.3909400   9.5591870  46.2233530  42.7883210
  10.2034090  46.4292910  43.4656630   9.9221310  45.4621930  42.3354060
   3.1571040  31.0564840  36.0313430   3.0285670  31.0482740  36.9798350
   2.3333060  31.3947930  35.6804440  10.8323950  44.2265880  41.5060660
  11.4746180  43.5259040  41.6192830  11.3573300  45.0064320  41.3257550
  14.6779670  44.5114500  31.2299800  14.4517250  43.7944940  31.8224440
  14.2875870  44.2626940  30.3921550  12.6061570  45.0260780  44.7096720
  12.9417810  45.6127470  45.3874640  11.6861910  44.8953490  44.9394510
  14.2595920  42.4286440  32.8913960  13.9717620  42.8899130  33.6791840
  15.0548090  41.9684210  33.1598180   8.4350150  45.0752110  47.8784780
   8.1147020  44.3561350  48.4230470   7.7608510  45.7507180  47.9520840
   6.4764320  45.9212560  32.8217930   6.4674420  46.6542250  32.2062440
   5.5562680  45.6744140  32.9144890  11.6503750  35.3078270  43.2421580
  12.0184570  34.4873480  43.5701150  10.7901950  35.3680160  43.6577230
  15.0165780  34.2635210  34.0509140  14.3878940  34.3680880  33.3367370
  14.5217700  34.4831990  34.8403020   9.4623920  45.9840800  31.4843120
   9.5635900  45.7804790  30.5545100   8.5625660  45.7299080  31.6890900
   6.9849810  36.5421160  35.4667020   6.2765960  37.0107500  35.9080630
   7.2694290  35.8843170  36.1012210   8.6105740  37.9617860  43.4659550
   9.1090990  38.4363680  44.1311400   8.7528690  37.0381380  43.6729580
  11.0165240  33.2671820  36.9062810  10.8933020  33.2857950  35.9572320
  11.9649800  33.3150760  37.0261210   8.1042030  48.5027120  36.1790790
   8.3583530  48.4648510  35.2570160   7.1554510  48.3760450  36.1719040
   5.1884830  34.8506240  32.8417730   6.0375360  35.2876390  32.7757920
   4.8216100  35.1626500  33.6689790  15.8172600  34.1785820  44.3087940
  15.3146200  34.9191220  44.6481750  16.6329260  34.5669820  43.9924730
  14.1094610  39.4219000  37.7549300  13.1684750  39.4369230  37.9296990
  14.4238680  38.6354960  38.2009600   4.0876250  41.1038600  31.3153260
   4.8539520  40.9919960  31.8778690   4.1650940  40.4076570  30.6630030
   2.7823010  38.5363670  31.9986150   2.8626600  37.5891180  32.1103550
   3.6742760  38.8670550  32.1046810  16.1120190  46.5927850  39.4303560
  16.2367610  47.4159020  39.9027370  16.9785750  46.3818580  39.0827710
   3.5837720  48.6859060  39.1020690   4.3200200  48.1374520  39.3729260
   3.9678640  49.5515070  38.9626680   2.5896000  47.8705130  48.2906270
   3.3908730  48.1917180  48.7041670   2.0747820  47.5100710  49.0126180
   6.6940030  47.8589370  30.9246260   7.4868640  48.1478200  30.4728050
   6.1744380  47.4281540  30.2458740  11.4260630  43.9785000  48.2381680
  10.8198790  44.0016600  47.4977430  11.1214740  43.2468040  48.7748930
  12.8561000  47.7065290  46.8491090  13.8082750  47.6223310  46.7991330
  12.7089220  48.3707000  47.5224880  15.7470200  47.0859500  32.3483000
  15.4611710  46.6724640  31.5337180  15.5489750  48.0147210  32.2283520
   7.2117430  43.0792780  30.7888610   7.1068070  42.4645130  31.5149990
   7.0441650  42.5558670  30.0051620   7.3631750  41.7649580  46.7677840
   6.5977420  42.3334580  46.6832510   7.5447710  41.4725790  45.8746070
  10.4520160  42.1412810  31.3930600   9.9030260  42.5882110  32.0373340
  11.0739420  41.6362060  31.9168270  14.5055100  43.4954910  47.3252860
  15.2464570  43.8330670  46.8220320  13.7427780  43.6646970  46.7722630
   2.3416890  38.5008180  48.1292390   2.3822230  38.2022050  49.0377620
   3.1962390  38.9015790  47.9699910   6.1195280  41.1003730  33.2895900
   6.5411700  40.9343600  34.1327290   6.2446120  40.2903960  32.7951040
   4.2822700  37.0800280  46.0966880   3.7519160  36.5891230  45.4690220
   4.9510770  37.5084480  45.5624810   8.6322920  40.1241340  30.5373000
   9.1528580  39.4090360  30.1714150   9.2791320  40.7627210  30.8373510
  13.1800760  41.5469740  45.8608070  13.5941780  41.7014820  46.7098490
  12.2451760  41.6724960  46.0233850  13.6522930  38.8865900  47.8647220
  14.2343700  38.1318220  47.7767700  13.8284700  39.4173340  47.0878700
   4.7695000  34.0462650  46.1764170   4.6751870  33.4283400  45.4515040
   4.1892390  34.7728940  45.9494080   7.5356440  32.6035890  43.2091560
   7.0873740  32.6260150  42.3637110   6.9021640  32.2054910  43.8061860
   7.9415990  41.4990220  43.8304000   8.3604100  42.3422950  43.6580240
   7.0224620  41.6362260  43.6010780  10.2779890  39.2306400  45.2141840
  10.3976100  38.6347540  45.9536680  11.1373890  39.2676090  44.7943140
  12.6167790  39.7843590  43.7904350  12.0903010  40.3086210  43.1869490
  12.9599130  40.4170980  44.4214080   5.0154180  37.1736960  30.2354060
   4.8143240  36.3104320  30.5967400   4.8446230  37.0870320  29.2975660
   5.7923410  47.8043230  44.9461730   5.2544500  48.5289290  44.6270430
   6.0457370  47.3273570  44.1559070   7.0448660  35.7727750  46.4717660
   7.6348350  35.4643600  47.1595480   6.2268900  35.3007500  46.6277560
  11.8642090  35.3893560  46.7050680  11.1757610  34.7275100  46.6400670
  12.5848110  34.9431830  47.1499140  12.4942490  31.9845190  32.7640940
  12.7744780  31.1413090  33.1200360  11.7208220  32.2168300  33.2779690
   3.8136980  34.2737580  30.2231940   4.1162880  34.2805010  29.3151090
   4.5531570  33.9235440  30.7199600   8.6485620  49.0394440  45.2048380
   8.5744320  49.9429580  45.5120750   7.7464460  48.7206340  45.1770450
   7.0321910  33.2172200  31.2088140   6.6843910  32.5396190  30.6290590
   7.2334680  32.7561710  32.0231530   9.1970950  48.2052950  32.8274740
  10.0921740  48.5437920  32.8493500   9.2288580  47.4832360  32.1999020
   2.8367110  43.5780000  31.0561740   3.2741980  44.1209670  31.7119320
   3.3214840  42.7526950  31.0658080   4.6474830  44.6978040  36.1683970
   4.3470370  44.5743010  37.0687880   4.5412320  43.8386630  35.7599700
  16.1765300  46.7356620  45.5340940  15.5767290  46.7949180  44.7904860
  16.3059200  45.7961600  45.6637790  17.4166750  44.4774440  30.8710650
  16.5859710  44.5451090  31.3417880  17.5938580  45.3678560  30.5677510
  16.8723210  41.2221920  33.3744850  17.6342120  41.7918570  33.4804540
  16.8877580  40.6549120  34.1453160  17.8783180  42.0772020  38.2186780
  18.2492010  41.2939340  37.8122750  18.5185110  42.7661120  38.0404080
  14.8616940  43.4608600  43.6317100  14.0476780  43.8905760  43.8942890
  15.2691140  44.0727010  43.0186150  16.9242380  41.5156290  30.5317370
  17.1991220  42.4235170  30.4036590  16.7353120  41.4518820  31.4679360
  13.3217990  34.5401140  31.8271000  13.7402870  34.3532120  30.9867660
  13.0154050  33.6880190  32.1373930  16.8207720  39.4525280  35.5246800
  16.4451320  38.6853210  35.0928090  16.0910840  39.8347980  36.0121730
  16.2107340  38.5996800  45.1586320  15.9793430  38.3709550  44.2584270
  16.4711890  39.5196350  45.1131210  14.6495410  33.8253230  47.9366020
  15.5265590  33.8336630  48.3200020  14.6616250  33.0884070  47.3258370
  16.0958680  37.6782770  38.8254040  16.6196160  37.1845420  38.1944210
  16.6818100  37.8133130  39.5701610  16.2748400  37.7622640  42.3473590
  15.3251110  37.7286180  42.4618580  16.4561410  38.6722750  42.1123360
   1.7767000  32.0663650  30.4974870   2.4995130  32.6072590  30.8156090
   2.0491520  31.7927070  29.6216410  15.5858650  36.9356120  34.7646450
  16.0817770  36.7026990  35.5495330  15.3874720  36.0967960  34.3484090
  17.0145810  35.5717070  37.2984130  16.9045090  35.4173110  38.2366400
  17.7753400  35.0438010  37.0559540  15.3611530  31.5111200  43.7567130
  15.9983750  32.1245340  44.1226320  15.5086420  31.5471860  42.8116360
  17.9036080  33.4024990  30.5390270  18.8285390  33.2706170  30.3308560
  17.8811870  33.4817810  31.4926720  17.9774570  34.1735650  33.1646980
  17.1826070  34.1080770  33.6939890  18.1817850  35.1086290  33.1532330
  14.9192990  48.2127200  37.1585370  15.5152060  47.8911770  36.4819790
  15.1771140  47.7399020  37.9498640   2.8255560  44.6445110  47.3076000
   2.7825190  44.2738020  48.1890460   2.9566570  45.5822680  47.4477820
   6.5261590  46.2004700  42.9085720   6.2852950  46.4679260  42.0216240
   7.4664230  46.3710430  42.9636580   8.7316010  32.6637390  46.6642230
   8.6704900  33.2559220  47.4137640   9.6716390  32.5563350  46.5192490
  11.3690570  32.3207450  46.3034520  11.9830980  32.6386740  45.6415600
  11.9140130  31.8356040  46.9230380  17.7865750  48.2199080  43.7096360
  17.2924030  48.6167950  42.9923490  17.1779040  47.5948290  44.1033640
   1.8911830  31.0001710  46.4173580   2.4394820  30.8189760  45.6539690
   1.9567140  30.2095820  46.9529890   2.6643590  47.5907360  44.4273780
   2.0703910  47.4592060  45.1663820   2.6567430  46.7545500  43.9615880
  12.1098610  30.8839590  42.6303810  11.2358450  31.2174700  42.4276740
  12.0009360  30.4112770  43.4555680  13.0170590  33.0910460  44.0145530
  12.6883950  32.2762220  43.6347260  13.9652890  33.0480270  43.8911220
  15.4705200  48.8622500  40.9883100  15.0108170  49.6138310  40.6141120
  14.8417660  48.1428970  40.9297900   5.9000920  47.1710740  40.1631230
   6.4165940  46.5598100  39.6379490   6.5498300  47.6739520  40.6542240
   8.6396420  48.0619230  40.9900210   8.9274230  47.8073530  40.1133220
   9.1519640  47.5096590  41.5805780   9.8573430  31.8009430  41.5696720
   9.0745220  32.2754930  41.8493480   9.5636360  30.8964260  41.4609900
  14.4094500  32.5032530  39.6145810  14.8502590  32.4477630  38.7667410
  14.1402090  33.4190540  39.6855990  16.2733070  32.1347770  37.6254630
  16.2121470  31.1908990  37.4785650  17.0525100  32.2427860  38.1708090
   7.7427650  34.2196180  37.0812750   6.9302160  33.8453070  36.7408630
   8.2469290  33.4641260  37.3833940  12.2452630  30.8838630  38.3195820
  12.8482000  31.4558840  38.7944340  11.5045620  31.4478070  38.0969720
  15.3887230  31.2860190  33.5936100  15.5837860  32.1843640  33.8603530
  14.6017100  31.0547270  34.0869050   2.1848520  46.9673360  34.0328720
   1.6596140  47.3481390  33.3290680   2.1093100  47.5924130  34.7538430
   3.5738990  32.6320960  32.6312410   4.1031750  31.8450760  32.5020360
   4.2067310  33.3112150  32.8647940   5.7676830  32.3696100  35.6857800
   5.1379570  31.6683410  35.8527930   5.2281970  33.1300230  35.4690960
   8.7068780  48.9835330  48.3568410   9.6336090  48.7479600  48.4004370
   8.6919210  49.8107330  47.8754440  16.9413840  48.5260900  35.3542660
  17.1166030  47.8398640  34.7103580  16.2435410  49.0507950  34.9619330
   5.8932390  31.6480080  48.1210290   5.6116660  32.1513680  47.3571110
   6.2752090  30.8501830  47.7552420   4.7841490  48.9155740  32.9077970
   5.5160310  48.6315020  32.3601860   5.0435160  48.6769020  33.7977350
   3.9456280  45.0320470  32.9124300   3.3165160  45.5005570  33.4610130
   4.0604110  44.1869690  33.3470490  12.4947850  31.0633660  48.6990760
  12.3813300  31.3828270  49.5942280  13.3117590  31.4646170  48.4028040
  15.2746340  48.2105190  48.1809450  16.0671660  47.7154420  47.9735410
  15.5679490  48.8895330  48.7885060  11.4006000  39.0826130  19.0625500
  11.3200050  38.1680740  18.7917210  10.9870420  39.5793200  18.3565210
   9.5324040  40.8605150  20.9434770   8.7566140  40.3805590  21.2333340
  10.1836970  40.1810800  20.7690930   3.5489870  41.1724960  21.8210530
   2.7174750  40.9173670  22.2207040   4.1570850  41.2435730  22.5568450
  13.5531470  45.2665340  19.7233900  13.0913000  44.4952580  20.0521070
  14.3657020  45.2931410  20.2286350   3.5291130  45.2065050  22.0168550
   3.8319170  44.3162790  21.8378770   4.2734720  45.7635270  21.7890800
   9.7794780  47.5523350  19.3437890   9.1606220  48.0080850  18.7732330
  10.6346560  47.7074810  18.9427590   8.9733030  43.5362340  20.9504930
   8.9041310  42.5952280  20.7894060   9.7352890  43.6263750  21.5227500
  10.0038200  36.3432720  21.1773860  10.3803020  35.4704600  21.0647530
   9.9057710  36.6791420  20.2864300   4.1343210  34.7158350  16.6391300
   4.2409960  35.6162080  16.9460060   3.2235570  34.6676320  16.3485950
  13.7862320  33.8383160  18.1102200  14.6071940  33.3479730  18.1527680
  13.8196400  34.4280820  18.8634040   5.9750940  37.6844720  20.9716480
   6.4829160  38.1825690  21.6121500   6.5064180  36.9079920  20.7955840
  18.0761870  35.8549910  24.6745830  17.3714040  36.2431620  24.1560940
  18.3419790  36.5500200  25.2766760   4.2587040  32.3243280  25.2379900
   4.2605480  32.8415670  24.4325800   3.4291350  31.8473460  25.2149830
  10.6458130  42.4362590  16.7369800  10.0275400  42.9012040  16.1732520
  11.1581380  43.1290070  17.1539310   5.5089890  41.9638460  23.4153400
   5.1759270  42.5907380  24.0574470   5.6856570  42.4900340  22.6355070
  14.0223800  35.7783540  20.8829740  13.3179370  36.0668430  21.4632850
  14.3835960  36.5883650  20.5229300   3.9402370  34.0353240  23.2450350
   4.2819180  34.8795290  22.9504220   3.0018180  34.1836980  23.3615690
   4.7208990  43.9319260  25.2302580   5.3382990  44.6070340  24.9487030
   3.8602110  44.3407240  25.1390080  15.6386580  45.3958670  23.1457220
  14.9550100  46.0657780  23.1373890  16.1780870  45.5939320  22.3802080
  17.0910720  35.2238330  21.2738950  16.1435630  35.2577310  21.4054380
  17.4160710  36.0377280  21.6588310   7.6230260  31.5235510  19.5694940
   7.9305240  30.9682400  18.8530440   6.6930960  31.6579970  19.3867930
  13.1745320  47.2402800  21.8602400  13.1872480  46.8365090  20.9924660
  12.6220540  48.0150090  21.7563830  14.4690740  43.9619020  16.9492570
  14.3587070  43.0193350  17.0741990  14.4658990  44.3234660  17.8355330
  12.5730760  42.1432640  23.1885010  12.9899550  41.9292750  22.3538470
  13.2970580  42.4005430  23.7593630  10.0111020  39.5884340  16.3055060
   9.0840300  39.5221720  16.5343530  10.1635840  40.5264470  16.1910300
   9.9980100  35.8601340  13.3022220   9.0583770  36.0215300  13.3874680
  10.3163360  36.5787020  12.7558210  16.5192860  40.5419860  23.2801250
  15.6911490  40.6112950  22.8051380  17.1143340  41.1274170  22.8117080
  14.0408310  41.1504640  16.8090310  13.4220730  40.8124190  16.1616610
  14.0232760  40.5064400  17.5169500  13.4834870  37.3289180  24.2256120
  13.0706050  38.1542890  24.4796110  12.7510820  36.7434220  24.0332480
   5.6167660  40.1149080  19.0874790   5.2124660  39.4026330  18.5920690
   5.7030780  39.7702320  19.9762830   6.0849360  43.8016640  21.2514000
   5.7877650  43.1962110  20.5721780   7.0349180  43.8393950  21.1403360
   4.3296280  36.8892290  22.8673830   4.8810870  36.9987630  22.0927080
   4.8439790  37.2629890  23.5829060  14.1734970  47.3748510  24.9137100
  13.6965530  48.1820700  24.7209710  13.4896760  46.7226840  25.0663310
   5.1767790  43.5398330  27.9021800   4.2796320  43.7638300  28.1495200
   5.2020660  43.6633270  26.9533200  12.2173010  40.3891450  13.8163060
  12.6566290  39.5513880  13.6700880  12.9301430  41.0220850  13.9027200
   4.0039010  40.4111650  26.4779170   3.8646780  41.2834450  26.8466570
   3.1220370  40.0684460  26.3327110  10.3268390  45.3287520  17.7844300
  10.7664300  46.0711850  17.3699690  10.2655280  45.5714090  18.7083260
   5.8019360  46.3533350  28.6864320   5.7734790  46.7576300  27.8192750
   5.6384330  45.4243710  28.5235920  15.7990150  31.6434260  12.1304100
  15.4862810  31.7361090  13.0303170  16.5602620  32.2215290  12.0801530
   2.3172290  39.0094060  16.5881440   2.1969890  39.7356150  15.9762710
   2.0073180  38.2396970  16.1109350  17.7534180  47.1360450  29.9828490
  18.2293900  47.6143340  30.6617570  18.3741340  47.0677940  29.2573990
  17.1567430  44.3273300  27.1428500  17.2830490  44.0885180  26.2245680
  17.1988810  43.4957840  27.6150580  11.0184170  48.0301300  25.7123310
  11.5328840  47.9409310  26.5145740  10.1753250  48.3761000  26.0051220
  12.9938570  48.3156640  15.1407310  12.8339710  48.0259580  16.0389140
  12.8285280  47.5396770  14.6052540   5.4726950  48.0955170  16.9178930
   5.2969430  47.1790710  16.7046730   4.6182690  48.4542460  17.1576730
  12.6964700  45.8244200  13.7005310  12.0029860  45.8221490  13.0407590
  13.4387560  45.4003520  13.2699480  12.2614630  47.4506910  17.7753800
  12.7171580  46.6696290  18.0892420  12.6007150  48.1613730  18.3194980
  17.0091440  36.3805760  28.1078240  16.3935710  36.8885430  27.5793700
  16.6887860  35.4804090  28.0504180   4.7835950  32.3529130  19.9705110
   4.3404100  33.1338670  19.6389630   5.3420940  32.6759020  20.6776050
   9.0705760  35.2197650  25.5740430   8.6085130  35.4280670  26.3860370
   8.6683870  34.4057000  25.2711100  14.0710270  36.4406600  26.7037090
  13.2203860  36.1412350  27.0246160  13.9112060  36.6848610  25.7920910
  11.1659980  37.9408350  28.8035880  11.4913390  37.1072100  28.4638110
  11.9540310  38.4636870  28.9514210   7.8994770  31.9739830  14.8510940
   7.2748950  31.9699700  15.5764250   7.8124890  31.1070790  14.4546910
   6.8211850  32.8976460  21.8294710   7.1184180  33.8039290  21.7486730
   7.3697410  32.4095240  21.2154280   4.5750170  37.4762700  17.6986360
   4.3491090  37.2599870  18.6032980   3.7942700  37.9091160  17.3532330
  11.8047930  37.4826070  16.2977010  11.2056820  38.2061870  16.1140630
  12.3527540  37.4202850  15.5153460   7.0149380  38.3748280  28.3646630
   6.9192980  37.4343010  28.2147030   7.8581360  38.5963350  27.9694700
  10.4112800  36.1189610  18.3280290  10.8042370  36.4361810  17.5148980
  10.7729650  35.2401490  18.4424810   8.7204970  34.8696920  29.5877150
   8.0303290  34.6769120  30.2223240   9.4637270  35.1531560  30.1201450
  10.9967940  38.7095360  22.4231070  10.2649060  39.2182170  22.7721170
  10.5992280  37.8925340  22.1219850   7.4345330  35.3849560  20.8283560
   7.4381390  34.9439510  19.9788100   8.3296450  35.7066890  20.9355380
   3.2847710  35.2676050  19.7877770   2.9447760  35.7451280  20.5444820
   2.5225030  34.8141170  19.4278870   7.4965480  36.3861640  13.8190320
   7.6178300  36.3448120  14.7676140   7.1113990  37.2485790  13.6637050
  11.4593850  34.1629040  21.8354010  11.4766590  34.6137690  22.6795860
  11.2109430  33.2634680  22.0487450   6.5086980  38.6962780  13.2173620
   5.9403880  38.2481030  12.5909530   7.2175980  39.0555560  12.6838770
  14.8864600  31.5761220  27.6740390  15.2110370  30.8450880  28.1998370
  14.9221110  31.2574860  26.7721380   7.7353300  39.4451340  22.5748970
   8.1023430  38.9709910  23.3210310   7.5458360  40.3192910  22.9157310
   5.5252670  38.4859980  24.8933180   5.2209740  39.3651960  25.1183540
   6.4799130  38.5459770  24.9290620   4.0534460  42.6920970  15.4900030
   3.2796720  42.1518590  15.3298750   4.7829090  42.1727580  15.1517790
  14.8122440  41.6886330  21.2826420  15.5321560  42.1841620  20.8922530
  14.6104260  41.0104220  20.6380290  10.2732380  33.0824290  15.4255810
   9.4596990  32.5837460  15.3501120  10.0794330  33.9222540  15.0092160
  10.1941240  41.7595390  27.1695420  10.1278550  40.8391060  26.9153010
   9.5646380  41.8570830  27.8840060  12.9880770  37.4543940  13.7217970
  13.8760390  37.7661170  13.5469310  12.9585860  36.5816190  13.3298550
   4.0971860  42.3601350  19.1278840   4.6150530  41.5569610  19.0735730
   3.6455880  42.2980490  19.9695670   8.9841360  43.6267630  14.4006140
   9.3257060  44.3709860  13.9049460   8.1554070  43.9398750  14.7630970
   4.7829520  39.7846960  28.9244090   4.4829660  39.9304140  28.0271910
   5.5540760  39.2252250  28.8317480  10.1257970  44.5815960  26.9199220
  10.1402510  43.6496920  26.7018130   9.4183070  44.6675720  27.5588990
  15.2595040  38.7655780  13.1897830  15.1758760  39.1970000  12.3394270
  15.9789230  39.2254130  13.6224650  16.3369180  41.2223300  26.2667800
  15.6117370  41.8152080  26.0697190  16.8644640  41.2146840  25.4681170
  16.2882290  45.6198040  15.9179960  15.6458450  44.9653660  16.1923680
  15.9012950  46.0253130  15.1420630  11.8668770  42.9483470  19.7651650
  12.2192590  42.3511600  19.1053020  10.9831100  42.6227700  19.9359900
   7.9532050  43.7081160  17.1722060   8.6403180  44.2550370  17.5529650
   7.1664470  44.2521890  17.2071670   7.2559260  40.7127190  16.7847420
   7.7122040  41.5232440  17.0107610   6.9047470  40.3950330  17.6165910
   9.5591870  46.2233530  24.0139720  10.2034090  46.4292910  24.6913140
   9.9221310  45.4621930  23.5610570   3.1571040  31.0564840  17.2569940
   3.0285670  31.0482740  18.2054860   2.3333060  31.3947930  16.9060950
  10.8323950  44.2265880  22.7317170  11.4746180  43.5259040  22.8449340
  11.3573300  45.0064320  22.5514060  14.6779670  44.5114500  12.4556310
  14.4517250  43.7944940  13.0480950  14.2875870  44.2626940  11.6178060
  12.6061570  45.0260780  25.9353230  12.9417810  45.6127470  26.6131150
  11.6861910  44.8953490  26.1651020  14.2595920  42.4286440  14.1170470
  13.9717620  42.8899130  14.9048350  15.0548090  41.9684210  14.3854690
   8.4350150  45.0752110  29.1041290   8.1147020  44.3561350  29.6486980
   7.7608510  45.7507180  29.1777350   6.4764320  45.9212560  14.0474440
   6.4674420  46.6542250  13.4318950   5.5562680  45.6744140  14.1401400
  11.6503750  35.3078270  24.4678090  12.0184570  34.4873480  24.7957660
  10.7901950  35.3680160  24.8833740  15.0165780  34.2635210  15.2765650
  14.3878940  34.3680880  14.5623880  14.5217700  34.4831990  16.0659530
   9.4623920  45.9840800  12.7099630   9.5635900  45.7804790  11.7801610
   8.5625660  45.7299080  12.9147410   6.9849810  36.5421160  16.6923530
   6.2765960  37.0107500  17.1337140   7.2694290  35.8843170  17.3268720
   8.6105740  37.9617860  24.6916060   9.1090990  38.4363680  25.3567910
   8.7528690  37.0381380  24.8986090  11.0165240  33.2671820  18.1319320
  10.8933020  33.2857950  17.1828830  11.9649800  33.3150760  18.2517720
   8.1042030  48.5027120  17.4047300   8.3583530  48.4648510  16.4826670
   7.1554510  48.3760450  17.3975550   5.1884830  34.8506240  14.0674240
   6.0375360  35.2876390  14.0014430   4.8216100  35.1626500  14.8946300
  15.8172600  34.1785820  25.5344450  15.3146200  34.9191220  25.8738260
  16.6329260  34.5669820  25.2181240  14.1094610  39.4219000  18.9805810
  13.1684750  39.4369230  19.1553500  14.4238680  38.6354960  19.4266110
   4.0876250  41.1038600  12.5409770   4.8539520  40.9919960  13.1035200
   4.1650940  40.4076570  11.8886540   2.7823010  38.5363670  13.2242660
   2.8626600  37.5891180  13.3360060   3.6742760  38.8670550  13.3303320
  16.1120190  46.5927850  20.6560070  16.2367610  47.4159020  21.1283880
  16.9785750  46.3818580  20.3084220   3.5837720  48.6859060  20.3277200
   4.3200200  48.1374520  20.5985770   3.9678640  49.5515070  20.1883190
   2.5896000  47.8705130  29.5162780   3.3908730  48.1917180  29.9298180
   2.0747820  47.5100710  30.2382690   6.6940030  47.8589370  12.1502770
   7.4868640  48.1478200  11.6984560   6.1744380  47.4281540  11.4715250
  11.4260630  43.9785000  29.4638190  10.8198790  44.0016600  28.7233940
  11.1214740  43.2468040  30.0005440  12.8561000  47.7065290  28.0747600
  13.8082750  47.6223310  28.0247840  12.7089220  48.3707000  28.7481390
  15.7470200  47.0859500  13.5739510  15.4611710  46.6724640  12.7593690
  15.5489750  48.0147210  13.4540030   7.2117430  43.0792780  12.0145120
   7.1068070  42.4645130  12.7406500   7.0441650  42.5558670  11.2308130
   7.3631750  41.7649580  27.9934350   6.5977420  42.3334580  27.9089020
   7.5447710  41.4725790  27.1002580  10.4520160  42.1412810  12.6187110
   9.9030260  42.5882110  13.2629850  11.0739420  41.6362060  13.1424780
  14.5055100  43.4954910  28.5509370  15.2464570  43.8330670  28.0476830
  13.7427780  43.6646970  27.9979140   2.3416890  38.5008180  29.3548900
   2.3822230  38.2022050  30.2634130   3.1962390  38.9015790  29.1956420
   6.1195280  41.1003730  14.5152410   6.5411700  40.9343600  15.3583800
   6.2446120  40.2903960  14.0207550   4.2822700  37.0800280  27.3223390
   3.7519160  36.5891230  26.6946730   4.9510770  37.5084480  26.7881320
   8.6322920  40.1241340  11.7629510   9.1528580  39.4090360  11.3970660
   9.2791320  40.7627210  12.0630020  13.1800760  41.5469740  27.0864580
  13.5941780  41.7014820  27.9355000  12.2451760  41.6724960  27.2490360
  13.6522930  38.8865900  29.0903730  14.2343700  38.1318220  29.0024210
  13.8284700  39.4173340  28.3135210   4.7695000  34.0462650  27.4020680
   4.6751870  33.4283400  26.6771550   4.1892390  34.7728940  27.1750590
   7.5356440  32.6035890  24.4348070   7.0873740  32.6260150  23.5893620
   6.9021640  32.2054910  25.0318370   7.9415990  41.4990220  25.0560510
   8.3604100  42.3422950  24.8836750   7.0224620  41.6362260  24.8267290
  10.2779890  39.2306400  26.4398350  10.3976100  38.6347540  27.1793190
  11.1373890  39.2676090  26.0199650  12.6167790  39.7843590  25.0160860
  12.0903010  40.3086210  24.4126000  12.9599130  40.4170980  25.6470590
   5.0154180  37.1736960  11.4610570   4.8143240  36.3104320  11.8223910
   4.8446230  37.0870320  10.5232170   5.7923410  47.8043230  26.1718240
   5.2544500  48.5289290  25.8526940   6.0457370  47.3273570  25.3815580
   7.0448660  35.7727750  27.6974170   7.6348350  35.4643600  28.3851990
   6.2268900  35.3007500  27.8534070  11.8642090  35.3893560  27.9307190
  11.1757610  34.7275100  27.8657180  12.5848110  34.9431830  28.3755650
  12.4942490  31.9845190  13.9897450  12.7744780  31.1413090  14.3456870
  11.7208220  32.2168300  14.5036200   3.8136980  34.2737580  11.4488450
   4.1162880  34.2805010  10.5407600   4.5531570  33.9235440  11.9456110
   8.6485620  49.0394440  26.4304890   8.5744320  49.9429580  26.7377260
   7.7464460  48.7206340  26.4026960   7.0321910  33.2172200  12.4344650
   6.6843910  32.5396190  11.8547100   7.2334680  32.7561710  13.2488040
   9.1970950  48.2052950  14.0531250  10.0921740  48.5437920  14.0750010
   9.2288580  47.4832360  13.4255530   2.8367110  43.5780000  12.2818250
   3.2741980  44.1209670  12.9375830   3.3214840  42.7526950  12.2914590
   4.6474830  44.6978040  17.3940480   4.3470370  44.5743010  18.2944390
   4.5412320  43.8386630  16.9856210  16.1765300  46.7356620  26.7597450
  15.5767290  46.7949180  26.0161370  16.3059200  45.7961600  26.8894300
  17.4166750  44.4774440  12.0967160  16.5859710  44.5451090  12.5674390
  17.5938580  45.3678560  11.7934020  16.8723210  41.2221920  14.6001360
  17.6342120  41.7918570  14.7061050  16.8877580  40.6549120  15.3709670
  17.8783180  42.0772020  19.4443290  18.2492010  41.2939340  19.0379260
  18.5185110  42.7661120  19.2660590  14.8616940  43.4608600  24.8573610
  14.0476780  43.8905760  25.1199400  15.2691140  44.0727010  24.2442660
  16.9242380  41.5156290  11.7573880  17.1991220  42.4235170  11.6293100
  16.7353120  41.4518820  12.6935870  13.3217990  34.5401140  13.0527510
  13.7402870  34.3532120  12.2124170  13.0154050  33.6880190  13.3630440
  16.8207720  39.4525280  16.7503310  16.4451320  38.6853210  16.3184600
  16.0910840  39.8347980  17.2378240  16.2107340  38.5996800  26.3842830
  15.9793430  38.3709550  25.4840780  16.4711890  39.5196350  26.3387720
  14.6495410  33.8253230  29.1622530  15.5265590  33.8336630  29.5456530
  14.6616250  33.0884070  28.5514880  16.0958680  37.6782770  20.0510550
  16.6196160  37.1845420  19.4200720  16.6818100  37.8133130  20.7958120
  16.2748400  37.7622640  23.5730100  15.3251110  37.7286180  23.6875090
  16.4561410  38.6722750  23.3379870   1.7767000  32.0663650  11.7231380
   2.4995130  32.6072590  12.0412600   2.0491520  31.7927070  10.8472920
  15.5858650  36.9356120  15.9902960  16.0817770  36.7026990  16.7751840
  15.3874720  36.0967960  15.5740600  17.0145810  35.5717070  18.5240640
  16.9045090  35.4173110  19.4622910  17.7753400  35.0438010  18.2816050
  15.3611530  31.5111200  24.9823640  15.9983750  32.1245340  25.3482830
  15.5086420  31.5471860  24.0372870  17.9036080  33.4024990  11.7646780
  18.8285390  33.2706170  11.5565070  17.8811870  33.4817810  12.7183230
  17.9774570  34.1735650  14.3903490  17.1826070  34.1080770  14.9196400
  18.1817850  35.1086290  14.3788840  14.9192990  48.2127200  18.3841880
  15.5152060  47.8911770  17.7076300  15.1771140  47.7399020  19.1755150
   2.8255560  44.6445110  28.5332510   2.7825190  44.2738020  29.4146970
   2.9566570  45.5822680  28.6734330   6.5261590  46.2004700  24.1342230
   6.2852950  46.4679260  23.2472750   7.4664230  46.3710430  24.1893090
   8.7316010  32.6637390  27.8898740   8.6704900  33.2559220  28.6394150
   9.6716390  32.5563350  27.7449000  11.3690570  32.3207450  27.5291030
  11.9830980  32.6386740  26.8672110  11.9140130  31.8356040  28.1486890
  17.7865750  48.2199080  24.9352870  17.2924030  48.6167950  24.2180000
  17.1779040  47.5948290  25.3290150   1.8911830  31.0001710  27.6430090
   2.4394820  30.8189760  26.8796200   1.9567140  30.2095820  28.1786400
   2.6643590  47.5907360  25.6530290   2.0703910  47.4592060  26.3920330
   2.6567430  46.7545500  25.1872390  12.1098610  30.8839590  23.8560320
  11.2358450  31.2174700  23.6533250  12.0009360  30.4112770  24.6812190
  13.0170590  33.0910460  25.2402040  12.6883950  32.2762220  24.8603770
  13.9652890  33.0480270  25.1167730  15.4705200  48.8622500  22.2139610
  15.0108170  49.6138310  21.8397630  14.8417660  48.1428970  22.1554410
   5.9000920  47.1710740  21.3887740   6.4165940  46.5598100  20.8636000
   6.5498300  47.6739520  21.8798750   8.6396420  48.0619230  22.2156720
   8.9274230  47.8073530  21.3389730   9.1519640  47.5096590  22.8062290
   9.8573430  31.8009430  22.7953230   9.0745220  32.2754930  23.0749990
   9.5636360  30.8964260  22.6866410  14.4094500  32.5032530  20.8402320
  14.8502590  32.4477630  19.9923920  14.1402090  33.4190540  20.9112500
  16.2733070  32.1347770  18.8511140  16.2121470  31.1908990  18.7042160
  17.0525100  32.2427860  19.3964600   7.7427650  34.2196180  18.3069260
   6.9302160  33.8453070  17.9665140   8.2469290  33.4641260  18.6090450
  12.2452630  30.8838630  19.5452330  12.8482000  31.4558840  20.0200850
  11.5045620  31.4478070  19.3226230  15.3887230  31.2860190  14.8192610
  15.5837860  32.1843640  15.0860040  14.6017100  31.0547270  15.3125560
   2.1848520  46.9673360  15.2585230   1.6596140  47.3481390  14.5547190
   2.1093100  47.5924130  15.9794940   3.5738990  32.6320960  13.8568920
   4.1031750  31.8450760  13.7276870   4.2067310  33.3112150  14.0904450
   5.7676830  32.3696100  16.9114310   5.1379570  31.6683410  17.0784440
   5.2281970  33.1300230  16.6947470   8.7068780  48.9835330  29.5824920
   9.6336090  48.7479600  29.6260880   8.6919210  49.8107330  29.1010950
  16.9413840  48.5260900  16.5799170  17.1166030  47.8398640  15.9360090
  16.2435410  49.0507950  16.1875840   5.8932390  31.6480080  29.3466800
   5.6116660  32.1513680  28.5827620   6.2752090  30.8501830  28.9808930
   4.7841490  48.9155740  14.1334480   5.5160310  48.6315020  13.5858370
   5.0435160  48.6769020  15.0233860   3.9456280  45.0320470  14.1380810
   3.3165160  45.5005570  14.6866640   4.0604110  44.1869690  14.5727000
  12.4947850  31.0633660  29.9247270  12.3813300  31.3828270  30.8198790
  13.3117590  31.4646170  29.6284550  15.2746340  48.2105190  29.4065960
  16.0671660  47.7154420  29.1991920  15.5679490  48.8895330  30.0141570
   9.5324040  40.8605150   2.1691280   8.7566140  40.3805590   2.4589850
  10.1836970  40.1810800   1.9947440   3.5489870  41.1724960   3.0467040
   2.7174750  40.9173670   3.4463550   4.1570850  41.2435730   3.7824960
   3.5291130  45.2065050   3.2425060   3.8319170  44.3162790   3.0635280
   4.2734720  45.7635270   3.0147310   8.9733030  43.5362340   2.1761440
   8.9041310  42.5952280   2.0150570   9.7352890  43.6263750   2.7484010
   5.9750940  37.6844720   2.1972990   6.4829160  38.1825690   2.8378010
   6.5064180  36.9079920   2.0212350  18.0761870  35.8549910   5.9002340
  17.3714040  36.2431620   5.3817450  18.3419790  36.5500200   6.5023270
   4.2587040  32.3243280   6.4636410   4.2605480  32.8415670   5.6582310
   3.4291350  31.8473460   6.4406340   5.5089890  41.9638460   4.6409910
   5.1759270  42.5907380   5.2830980   5.6856570  42.4900340   3.8611580
  14.0223800  35.7783540   2.1086250  13.3179370  36.0668430   2.6889360
  14.3835960  36.5883650   1.7485810   3.9402370  34.0353240   4.4706860
   4.2819180  34.8795290   4.1760730   3.0018180  34.1836980   4.5872200
   4.7208990  43.9319260   6.4559090   5.3382990  44.6070340   6.1743540
   3.8602110  44.3407240   6.3646590  15.6386580  45.3958670   4.3713730
  14.9550100  46.0657780   4.3630400  16.1780870  45.5939320   3.6058590
  17.0910720  35.2238330   2.4995460  16.1435630  35.2577310   2.6310890
  17.4160710  36.0377280   2.8844820  13.1745320  47.2402800   3.0858910
  13.1872480  46.8365090   2.2181170  12.6220540  48.0150090   2.9820340
  12.5730760  42.1432640   4.4141520  12.9899550  41.9292750   3.5794980
  13.2970580  42.4005430   4.9850140  16.5192860  40.5419860   4.5057760
  15.6911490  40.6112950   4.0307890  17.1143340  41.1274170   4.0373590
  13.4834870  37.3289180   5.4512630  13.0706050  38.1542890   5.7052620
  12.7510820  36.7434220   5.2588990   6.0849360  43.8016640   2.4770510
   5.7877650  43.1962110   1.7978290   7.0349180  43.8393950   2.3659870
   4.3296280  36.8892290   4.0930340   4.8810870  36.9987630   3.3183590
   4.8439790  37.2629890   4.8085570  14.1734970  47.3748510   6.1393610
  13.6965530  48.1820700   5.9466220  13.4896760  46.7226840   6.2919820
   5.1767790  43.5398330   9.1278310   4.2796320  43.7638300   9.3751710
   5.2020660  43.6633270   8.1789710   4.0039010  40.4111650   7.7035680
   3.8646780  41.2834450   8.0723080   3.1220370  40.0684460   7.5583620
   5.8019360  46.3533350   9.9120830   5.7734790  46.7576300   9.0449260
   5.6384330  45.4243710   9.7492430  17.7534180  47.1360450  11.2085000
  18.2293900  47.6143340  11.8874080  18.3741340  47.0677940  10.4830500
  17.1567430  44.3273300   8.3685010  17.2830490  44.0885180   7.4502190
  17.1988810  43.4957840   8.8407090  11.0184170  48.0301300   6.9379820
  11.5328840  47.9409310   7.7402250  10.1753250  48.3761000   7.2307730
  17.0091440  36.3805760   9.3334750  16.3935710  36.8885430   8.8050210
  16.6887860  35.4804090   9.2760690   9.0705760  35.2197650   6.7996940
   8.6085130  35.4280670   7.6116880   8.6683870  34.4057000   6.4967610
  14.0710270  36.4406600   7.9293600  13.2203860  36.1412350   8.2502670
  13.9112060  36.6848610   7.0177420  11.1659980  37.9408350  10.0292390
  11.4913390  37.1072100   9.6894620  11.9540310  38.4636870  10.1770720
   6.8211850  32.8976460   3.0551220   7.1184180  33.8039290   2.9743240
   7.3697410  32.4095240   2.4410790   7.0149380  38.3748280   9.5903140
   6.9192980  37.4343010   9.4403540   7.8581360  38.5963350   9.1951210
   8.7204970  34.8696920  10.8133660   8.0303290  34.6769120  11.4479750
   9.4637270  35.1531560  11.3457960  10.9967940  38.7095360   3.6487580
  10.2649060  39.2182170   3.9977680  10.5992280  37.8925340   3.3476360
  11.4593850  34.1629040   3.0610520  11.4766590  34.6137690   3.9052370
  11.2109430  33.2634680   3.2743960  14.8864600  31.5761220   8.8996900
  15.2110370  30.8450880   9.4254880  14.9221110  31.2574860   7.9977890
   7.7353300  39.4451340   3.8005480   8.1023430  38.9709910   4.5466820
   7.5458360  40.3192910   4.1413820   5.5252670  38.4859980   6.1189690
   5.2209740  39.3651960   6.3440050   6.4799130  38.5459770   6.1547130
  14.8122440  41.6886330   2.5082930  15.5321560  42.1841620   2.1179040
  14.6104260  41.0104220   1.8636800  10.1941240  41.7595390   8.3951930
  10.1278550  40.8391060   8.1409520   9.5646380  41.8570830   9.1096570
   4.7829520  39.7846960  10.1500600   4.4829660  39.9304140   9.2528420
   5.5540760  39.2252250  10.0573990  10.1257970  44.5815960   8.1455730
  10.1402510  43.6496920   7.9274640   9.4183070  44.6675720   8.7845500
  16.3369180  41.2223300   7.4924310  15.6117370  41.8152080   7.2953700
  16.8644640  41.2146840   6.6937680   9.5591870  46.2233530   5.2396230
  10.2034090  46.4292910   5.9169650   9.9221310  45.4621930   4.7867080
  10.8323950  44.2265880   3.9573680  11.4746180  43.5259040   4.0705850
  11.3573300  45.0064320   3.7770570  12.6061570  45.0260780   7.1609740
  12.9417810  45.6127470   7.8387660  11.6861910  44.8953490   7.3907530
   8.4350150  45.0752110  10.3297800   8.1147020  44.3561350  10.8743490
   7.7608510  45.7507180  10.4033860  11.6503750  35.3078270   5.6934600
  12.0184570  34.4873480   6.0214170  10.7901950  35.3680160   6.1090250
   8.6105740  37.9617860   5.9172570   9.1090990  38.4363680   6.5824420
   8.7528690  37.0381380   6.1242600  15.8172600  34.1785820   6.7600960
  15.3146200  34.9191220   7.0994770  16.6329260  34.5669820   6.4437750
   2.5896000  47.8705130  10.7419290   3.3908730  48.1917180  11.1554690
   2.0747820  47.5100710  11.4639200  11.4260630  43.9785000  10.6894700
  10.8198790  44.0016600   9.9490450  11.1214740  43.2468040  11.2261950
  12.8561000  47.7065290   9.3004110  13.8082750  47.6223310   9.2504350
  12.7089220  48.3707000   9.9737900   7.3631750  41.7649580   9.2190860
   6.5977420  42.3334580   9.1345530   7.5447710  41.4725790   8.3259090
  14.5055100  43.4954910   9.7765880  15.2464570  43.8330670   9.2733340
  13.7427780  43.6646970   9.2235650   2.3416890  38.5008180  10.5805410
   2.3822230  38.2022050  11.4890640   3.1962390  38.9015790  10.4212930
   4.2822700  37.0800280   8.5479900   3.7519160  36.5891230   7.9203240
   4.9510770  37.5084480   8.0137830  13.1800760  41.5469740   8.3121090
  13.5941780  41.7014820   9.1611510  12.2451760  41.6724960   8.4746870
  13.6522930  38.8865900  10.3160240  14.2343700  38.1318220  10.2280720
  13.8284700  39.4173340   9.5391720   4.7695000  34.0462650   8.6277190
   4.6751870  33.4283400   7.9028060   4.1892390  34.7728940   8.4007100
   7.5356440  32.6035890   5.6604580   7.0873740  32.6260150   4.8150130
   6.9021640  32.2054910   6.2574880   7.9415990  41.4990220   6.2817020
   8.3604100  42.3422950   6.1093260   7.0224620  41.6362260   6.0523800
  10.2779890  39.2306400   7.6654860  10.3976100  38.6347540   8.4049700
  11.1373890  39.2676090   7.2456160  12.6167790  39.7843590   6.2417370
  12.0903010  40.3086210   5.6382510  12.9599130  40.4170980   6.8727100
   5.7923410  47.8043230   7.3974750   5.2544500  48.5289290   7.0783450
   6.0457370  47.3273570   6.6072090   7.0448660  35.7727750   8.9230680
   7.6348350  35.4643600   9.6108500   6.2268900  35.3007500   9.0790580
  11.8642090  35.3893560   9.1563700  11.1757610  34.7275100   9.0913690
  12.5848110  34.9431830   9.6012160   8.6485620  49.0394440   7.6561400
   8.5744320  49.9429580   7.9633770   7.7464460  48.7206340   7.6283470
  16.1765300  46.7356620   7.9853960  15.5767290  46.7949180   7.2417880
  16.3059200  45.7961600   8.1150810  14.8616940  43.4608600   6.0830120
  14.0476780  43.8905760   6.3455910  15.2691140  44.0727010   5.4699170
  16.2107340  38.5996800   7.6099340  15.9793430  38.3709550   6.7097290
  16.4711890  39.5196350   7.5644230  14.6495410  33.8253230  10.3879040
  15.5265590  33.8336630  10.7713040  14.6616250  33.0884070   9.7771390
  16.2748400  37.7622640   4.7986610  15.3251110  37.7286180   4.9131600
  16.4561410  38.6722750   4.5636380  15.3611530  31.5111200   6.2080150
  15.9983750  32.1245340   6.5739340  15.5086420  31.5471860   5.2629380
   2.8255560  44.6445110   9.7589020   2.7825190  44.2738020  10.6403480
   2.9566570  45.5822680   9.8990840   6.5261590  46.2004700   5.3598740
   6.2852950  46.4679260   4.4729260   7.4664230  46.3710430   5.4149600
   8.7316010  32.6637390   9.1155250   8.6704900  33.2559220   9.8650660
   9.6716390  32.5563350   8.9705510  11.3690570  32.3207450   8.7547540
  11.9830980  32.6386740   8.0928620  11.9140130  31.8356040   9.3743400
  17.7865750  48.2199080   6.1609380  17.2924030  48.6167950   5.4436510
  17.1779040  47.5948290   6.5546660   1.8911830  31.0001710   8.8686600
   2.4394820  30.8189760   8.1052710   1.9567140  30.2095820   9.4042910
   2.6643590  47.5907360   6.8786800   2.0703910  47.4592060   7.6176840
   2.6567430  46.7545500   6.4128900  12.1098610  30.8839590   5.0816830
  11.2358450  31.2174700   4.8789760  12.0009360  30.4112770   5.9068700
  13.0170590  33.0910460   6.4658550  12.6883950  32.2762220   6.0860280
  13.9652890  33.0480270   6.3424240  15.4705200  48.8622500   3.4396120
  15.0108170  49.6138310   3.0654140  14.8417660  48.1428970   3.3810920
   5.9000920  47.1710740   2.6144250   6.4165940  46.5598100   2.0892510
   6.5498300  47.6739520   3.1055260   8.6396420  48.0619230   3.4413230
   8.9274230  47.8073530   2.5646240   9.1519640  47.5096590   4.0318800
   9.8573430  31.8009430   4.0209740   9.0745220  32.2754930   4.3006500
   9.5636360  30.8964260   3.9122920   8.7068780  48.9835330  10.8081430
   9.6336090  48.7479600  10.8517390   8.6919210  49.8107330  10.3267460
   5.8932390  31.6480080  10.5723310   5.6116660  32.1513680   9.8084130
   6.2752090  30.8501830  10.2065440  12.4947850  31.0633660  11.1503780
  12.3813300  31.3828270  12.0455300  13.3117590  31.4646170  10.8541060
  15.2746340  48.2105190  10.6322470  16.0671660  47.7154420  10.4248430
  15.5679490  48.8895330  11.2398080  11.4006000  20.3082640  94.1599460
  11.3200050  19.3937250  93.8891170  10.9870420  20.8049710  93.4539170
  13.5531470  26.4921850  94.8207860  13.0913000  25.7209090  95.1495030
  14.3657020  26.5187920  95.3260310   9.7794780  28.7779860  94.4411850
   9.1606220  29.2337360  93.8706290  10.6346560  28.9331320  94.0401550
   4.1343210  15.9414860  91.7365260   4.2409960  16.8418590  92.0434020
   3.2235570  15.8932830  91.4459910  13.7862320  15.0639670  93.2076160
  14.6071940  14.5736240  93.2501640  13.8196400  15.6537330  93.9608000
  10.6458130  23.6619100  91.8343760  10.0275400  24.1268550  91.2706480
  11.1581380  24.3546580  92.2513270   7.6230260  12.7492020  94.6668900
   7.9305240  12.1938910  93.9504400   6.6930960  12.8836480  94.4841890
  14.4690740  25.1875530  92.0466530  14.3587070  24.2449860  92.1715950
  14.4658990  25.5491170  92.9329290  10.0111020  20.8140850  91.4029020
   9.0840300  20.7478230  91.6317490  10.1635840  21.7520980  91.2884260
   9.9980100  17.0857850  88.3996180   9.0583770  17.2471810  88.4848640
  10.3163360  17.8043530  87.8532170  14.0408310  22.3761150  91.9064270
  13.4220730  22.0380700  91.2590570  14.0232760  21.7320910  92.6143460
   5.6167660  21.3405590  94.1848750   5.2124660  20.6282840  93.6894650
   5.7030780  20.9958830  95.0736790  12.2173010  21.6147960  88.9137020
  12.6566290  20.7770390  88.7674840  12.9301430  22.2477360  89.0001160
  10.3268390  26.5544030  92.8818260  10.7664300  27.2968360  92.4673650
  10.2655280  26.7970600  93.8057220  15.7990150  12.8690770  87.2278060
  15.4862810  12.9617600  88.1277130  16.5602620  13.4471800  87.1775490
   2.3172290  20.2350570  91.6855400   2.1969890  20.9612660  91.0736670
   2.0073180  19.4653480  91.2083310  12.9938570  29.5413150  90.2381270
  12.8339710  29.2516090  91.1363100  12.8285280  28.7653280  89.7026500
   5.4726950  29.3211680  92.0152890   5.2969430  28.4047220  91.8020690
   4.6182690  29.6798970  92.2550690  12.6964700  27.0500710  88.7979270
  12.0029860  27.0478000  88.1381550  13.4387560  26.6260030  88.3673440
  12.2614630  28.6763420  92.8727760  12.7171580  27.8952800  93.1866380
  12.6007150  29.3870240  93.4168940   4.7835950  13.5785640  95.0679070
   4.3404100  14.3595180  94.7363590   5.3420940  13.9015530  95.7750010
   7.8994770  13.1996340  89.9484900   7.2748950  13.1956210  90.6738210
   7.8124890  12.3327300  89.5520870   4.5750170  18.7019210  92.7960320
   4.3491090  18.4856380  93.7006940   3.7942700  19.1347670  92.4506290
  11.8047930  18.7082580  91.3950970  11.2056820  19.4318380  91.2114590
  12.3527540  18.6459360  90.6127420  10.4112800  17.3446120  93.4254250
  10.8042370  17.6618320  92.6122940  10.7729650  16.4658000  93.5398770
   7.4345330  16.6106070  95.9257520   7.4381390  16.1696020  95.0762060
   8.3296450  16.9323400  96.0329340   3.2847710  16.4932560  94.8851730
   2.9447760  16.9707790  95.6418780   2.5225030  16.0397680  94.5252830
   7.4965480  17.6118150  88.9164280   7.6178300  17.5704630  89.8650100
   7.1113990  18.4742300  88.7611010   6.5086980  19.9219290  88.3147580
   5.9403880  19.4737540  87.6883490   7.2175980  20.2812070  87.7812730
   4.0534460  23.9177480  90.5873990   3.2796720  23.3775100  90.4272710
   4.7829090  23.3984090  90.2491750  10.2732380  14.3080800  90.5229770
   9.4596990  13.8093970  90.4475080  10.0794330  15.1479050  90.1066120
  12.9880770  18.6800450  88.8191930  13.8760390  18.9917680  88.6443270
  12.9585860  17.8072700  88.4272510   4.0971860  23.5857860  94.2252800
   4.6150530  22.7826120  94.1709690   3.6455880  23.5237000  95.0669630
   8.9841360  24.8524140  89.4980100   9.3257060  25.5966370  89.0023420
   8.1554070  25.1655260  89.8604930  15.2595040  19.9912290  88.2871790
  15.1758760  20.4226510  87.4368230  15.9789230  20.4510640  88.7198610
  16.2882290  26.8454550  91.0153920  15.6458450  26.1910170  91.2897640
  15.9012950  27.2509640  90.2394590  11.8668770  24.1739980  94.8625610
  12.2192590  23.5768110  94.2026980  10.9831100  23.8484210  95.0333860
   7.9532050  24.9337670  92.2696020   8.6403180  25.4806880  92.6503610
   7.1664470  25.4778400  92.3045630   7.2559260  21.9383700  91.8821380
   7.7122040  22.7488950  92.1081570   6.9047470  21.6206840  92.7139870
   3.1571040  12.2821350  92.3543900   3.0285670  12.2739250  93.3028820
   2.3333060  12.6204440  92.0034910  14.6779670  25.7371010  87.5530270
  14.4517250  25.0201450  88.1454910  14.2875870  25.4883450  86.7152020
  14.2595920  23.6542950  89.2144430  13.9717620  24.1155640  90.0022310
  15.0548090  23.1940720  89.4828650   6.4764320  27.1469070  89.1448400
   6.4674420  27.8798760  88.5292910   5.5562680  26.9000650  89.2375360
  15.0165780  15.4891720  90.3739610  14.3878940  15.5937390  89.6597840
  14.5217700  15.7088500  91.1633490   9.4623920  27.2097310  87.8073590
   9.5635900  27.0061300  86.8775570   8.5625660  26.9555590  88.0121370
   6.9849810  17.7677670  91.7897490   6.2765960  18.2364010  92.2311100
   7.2694290  17.1099680  92.4242680  11.0165240  14.4928330  93.2293280
  10.8933020  14.5114460  92.2802790  11.9649800  14.5407270  93.3491680
   8.1042030  29.7283630  92.5021260   8.3583530  29.6905020  91.5800630
   7.1554510  29.6016960  92.4949510   5.1884830  16.0762750  89.1648200
   6.0375360  16.5132900  89.0988390   4.8216100  16.3883010  89.9920260
  14.1094610  20.6475510  94.0779770  13.1684750  20.6625740  94.2527460
  14.4238680  19.8611470  94.5240070   4.0876250  22.3295110  87.6383730
   4.8539520  22.2176470  88.2009160   4.1650940  21.6333080  86.9860500
   2.7823010  19.7620180  88.3216620   2.8626600  18.8147690  88.4334020
   3.6742760  20.0927060  88.4277280   3.5837720  29.9115570  95.4251160
   4.3200200  29.3631030  95.6959730   3.9678640  30.7771580  95.2857150
   6.6940030  29.0845880  87.2476730   7.4868640  29.3734710  86.7958520
   6.1744380  28.6538050  86.5689210  15.7470200  28.3116010  88.6713470
  15.4611710  27.8981150  87.8567650  15.5489750  29.2403720  88.5513990
   7.2117430  24.3049290  87.1119080   7.1068070  23.6901640  87.8380460
   7.0441650  23.7815180  86.3282090  10.4520160  23.3669320  87.7161070
   9.9030260  23.8138620  88.3603810  11.0739420  22.8618570  88.2398740
   6.1195280  22.3260240  89.6126370   6.5411700  22.1600110  90.4557760
   6.2446120  21.5160470  89.1181510   8.6322920  21.3497850  86.8603470
   9.1528580  20.6346870  86.4944620   9.2791320  21.9883720  87.1603980
   5.0154180  18.3993470  86.5584530   4.8143240  17.5360830  86.9197870
   4.8446230  18.3126830  85.6206130  12.4942490  13.2101700  89.0871410
  12.7744780  12.3669600  89.4430830  11.7208220  13.4424810  89.6010160
   3.8136980  15.4994090  86.5462410   4.1162880  15.5061520  85.6381560
   4.5531570  15.1491950  87.0430070   7.0321910  14.4428710  87.5318610
   6.6843910  13.7652700  86.9521060   7.2334680  13.9818220  88.3462000
   9.1970950  29.4309460  89.1505210  10.0921740  29.7694430  89.1723970
   9.2288580  28.7088870  88.5229490   2.8367110  24.8036510  87.3792210
   3.2741980  25.3466180  88.0349790   3.3214840  23.9783460  87.3888550
   4.6474830  25.9234550  92.4914440   4.3470370  25.7999520  93.3918350
   4.5412320  25.0643140  92.0830170  17.4166750  25.7030950  87.1941120
  16.5859710  25.7707600  87.6648350  17.5938580  26.5935070  86.8907980
  16.8723210  22.4478430  89.6975320  17.6342120  23.0175080  89.8035010
  16.8877580  21.8805630  90.4683630  17.8783180  23.3028530  94.5417250
  18.2492010  22.5195850  94.1353220  18.5185110  23.9917630  94.3634550
  16.9242380  22.7412800  86.8547840  17.1991220  23.6491680  86.7267060
  16.7353120  22.6775330  87.7909830  13.3217990  15.7657650  88.1501470
  13.7402870  15.5788630  87.3098130  13.0154050  14.9136700  88.4604400
  16.8207720  20.6781790  91.8477270  16.4451320  19.9109720  91.4158560
  16.0910840  21.0604490  92.3352200  16.0958680  18.9039280  95.1484510
  16.6196160  18.4101930  94.5174680  16.6818100  19.0389640  95.8932080
   1.7767000  13.2920160  86.8205340   2.4995130  13.8329100  87.1386560
   2.0491520  13.0183580  85.9446880  15.5858650  18.1612630  91.0876920
  16.0817770  17.9283500  91.8725800  15.3874720  17.3224470  90.6714560
  17.0145810  16.7973580  93.6214600  16.9045090  16.6429620  94.5596870
  17.7753400  16.2694520  93.3790010  17.9036080  14.6281500  86.8620740
  18.8285390  14.4962680  86.6539030  17.8811870  14.7074320  87.8157190
  17.9774570  15.3992160  89.4877450  17.1826070  15.3337280  90.0170360
  18.1817850  16.3342800  89.4762800  14.9192990  29.4383710  93.4815840
  15.5152060  29.1168280  92.8050260  15.1771140  28.9655530  94.2729110
  14.4094500  13.7289040  95.9376280  14.8502590  13.6734140  95.0897880
  14.1402090  14.6447050  96.0086460  16.2733070  13.3604280  93.9485100
  16.2121470  12.4165500  93.8016120  17.0525100  13.4684370  94.4938560
   7.7427650  15.4452690  93.4043220   6.9302160  15.0709580  93.0639100
   8.2469290  14.6897770  93.7064410  12.2452630  12.1095140  94.6426290
  12.8482000  12.6815350  95.1174810  11.5045620  12.6734580  94.4200190
  15.3887230  12.5116700  89.9166570  15.5837860  13.4100150  90.1834000
  14.6017100  12.2803780  90.4099520   2.1848520  28.1929870  90.3559190
   1.6596140  28.5737900  89.6521150   2.1093100  28.8180640  91.0768900
   3.5738990  13.8577470  88.9542880   4.1031750  13.0707270  88.8250830
   4.2067310  14.5368660  89.1878410   5.7676830  13.5952610  92.0088270
   5.1379570  12.8939920  92.1758400   5.2281970  14.3556740  91.7921430
  16.9413840  29.7517410  91.6773130  17.1166030  29.0655150  91.0334050
  16.2435410  30.2764460  91.2849800   4.7841490  30.1412250  89.2308440
   5.5160310  29.8571530  88.6832330   5.0435160  29.9025530  90.1207820
   3.9456280  26.2576980  89.2354770   3.3165160  26.7262080  89.7840600
   4.0604110  25.4126200  89.6700960  11.4006000  20.3082640  75.3855970
  11.3200050  19.3937250  75.1147680  10.9870420  20.8049710  74.6795680
   9.5324040  22.0861660  77.2665240   8.7566140  21.6062100  77.5563810
  10.1836970  21.4067310  77.0921400   3.5489870  22.3981470  78.1441000
   2.7174750  22.1430180  78.5437510   4.1570850  22.4692240  78.8798920
  13.5531470  26.4921850  76.0464370  13.0913000  25.7209090  76.3751540
  14.3657020  26.5187920  76.5516820   3.5291130  26.4321560  78.3399020
   3.8319170  25.5419300  78.1609240   4.2734720  26.9891780  78.1121270
   9.7794780  28.7779860  75.6668360   9.1606220  29.2337360  75.0962800
  10.6346560  28.9331320  75.2658060   8.9733030  24.7618850  77.2735400
   8.9041310  23.8208790  77.1124530   9.7352890  24.8520260  77.8457970
  10.0038200  17.5689230  77.5004330  10.3803020  16.6961110  77.3878000
   9.9057710  17.9047930  76.6094770   4.1343210  15.9414860  72.9621770
   4.2409960  16.8418590  73.2690530   3.2235570  15.8932830  72.6716420
  13.7862320  15.0639670  74.4332670  14.6071940  14.5736240  74.4758150
  13.8196400  15.6537330  75.1864510   5.9750940  18.9101230  77.2946950
   6.4829160  19.4082200  77.9351970   6.5064180  18.1336430  77.1186310
  18.0761870  17.0806420  80.9976300  17.3714040  17.4688130  80.4791410
  18.3419790  17.7756710  81.5997230   4.2587040  13.5499790  81.5610370
   4.2605480  14.0672180  80.7556270   3.4291350  13.0729970  81.5380300
  10.6458130  23.6619100  73.0600270  10.0275400  24.1268550  72.4962990
  11.1581380  24.3546580  73.4769780   5.5089890  23.1894970  79.7383870
   5.1759270  23.8163890  80.3804940   5.6856570  23.7156850  78.9585540
  14.0223800  17.0040050  77.2060210  13.3179370  17.2924940  77.7863320
  14.3835960  17.8140160  76.8459770   3.9402370  15.2609750  79.5680820
   4.2819180  16.1051800  79.2734690   3.0018180  15.4093490  79.6846160
   4.7208990  25.1575770  81.5533050   5.3382990  25.8326850  81.2717500
   3.8602110  25.5663750  81.4620550  15.6386580  26.6215180  79.4687690
  14.9550100  27.2914290  79.4604360  16.1780870  26.8195830  78.7032550
  17.0910720  16.4494840  77.5969420  16.1435630  16.4833820  77.7284850
  17.4160710  17.2633790  77.9818780   7.6230260  12.7492020  75.8925410
   7.9305240  12.1938910  75.1760910   6.6930960  12.8836480  75.7098400
  13.1745320  28.4659310  78.1832870  13.1872480  28.0621600  77.3155130
  12.6220540  29.2406600  78.0794300  14.4690740  25.1875530  73.2723040
  14.3587070  24.2449860  73.3972460  14.4658990  25.5491170  74.1585800
  12.5730760  23.3689150  79.5115480  12.9899550  23.1549260  78.6768940
  13.2970580  23.6261940  80.0824100  10.0111020  20.8140850  72.6285530
   9.0840300  20.7478230  72.8574000  10.1635840  21.7520980  72.5140770
   9.9980100  17.0857850  69.6252690   9.0583770  17.2471810  69.7105150
  10.3163360  17.8043530  69.0788680  16.5192860  21.7676370  79.6031720
  15.6911490  21.8369460  79.1281850  17.1143340  22.3530680  79.1347550
  14.0408310  22.3761150  73.1320780  13.4220730  22.0380700  72.4847080
  14.0232760  21.7320910  73.8399970  13.4834870  18.5545690  80.5486590
  13.0706050  19.3799400  80.8026580  12.7510820  17.9690730  80.3562950
   5.6167660  21.3405590  75.4105260   5.2124660  20.6282840  74.9151160
   5.7030780  20.9958830  76.2993300   6.0849360  25.0273150  77.5744470
   5.7877650  24.4218620  76.8952250   7.0349180  25.0650460  77.4633830
   4.3296280  18.1148800  79.1904300   4.8810870  18.2244140  78.4157550
   4.8439790  18.4886400  79.9059530  14.1734970  28.6005020  81.2367570
  13.6965530  29.4077210  81.0440180  13.4896760  27.9483350  81.3893780
   5.1767790  24.7654840  84.2252270   4.2796320  24.9894810  84.4725670
   5.2020660  24.8889780  83.2763670  12.2173010  21.6147960  70.1393530
  12.6566290  20.7770390  69.9931350  12.9301430  22.2477360  70.2257670
   4.0039010  21.6368160  82.8009640   3.8646780  22.5090960  83.1697040
   3.1220370  21.2940970  82.6557580  10.3268390  26.5544030  74.1074770
  10.7664300  27.2968360  73.6930160  10.2655280  26.7970600  75.0313730
   5.8019360  27.5789860  85.0094790   5.7734790  27.9832810  84.1423220
   5.6384330  26.6500220  84.8466390  15.7990150  12.8690770  68.4534570
  15.4862810  12.9617600  69.3533640  16.5602620  13.4471800  68.4032000
   2.3172290  20.2350570  72.9111910   2.1969890  20.9612660  72.2993180
   2.0073180  19.4653480  72.4339820  17.7534180  28.3616960  86.3058960
  18.2293900  28.8399850  86.9848040  18.3741340  28.2934450  85.5804460
  17.1567430  25.5529810  83.4658970  17.2830490  25.3141690  82.5476150
  17.1988810  24.7214350  83.9381050  11.0184170  29.2557810  82.0353780
  11.5328840  29.1665820  82.8376210  10.1753250  29.6017510  82.3281690
  12.9938570  29.5413150  71.4637780  12.8339710  29.2516090  72.3619610
  12.8285280  28.7653280  70.9283010   5.4726950  29.3211680  73.2409400
   5.2969430  28.4047220  73.0277200   4.6182690  29.6798970  73.4807200
  12.6964700  27.0500710  70.0235780  12.0029860  27.0478000  69.3638060
  13.4387560  26.6260030  69.5929950  12.2614630  28.6763420  74.0984270
  12.7171580  27.8952800  74.4122890  12.6007150  29.3870240  74.6425450
  17.0091440  17.6062270  84.4308710  16.3935710  18.1141940  83.9024170
  16.6887860  16.7060600  84.3734650   4.7835950  13.5785640  76.2935580
   4.3404100  14.3595180  75.9620100   5.3420940  13.9015530  77.0006520
   9.0705760  16.4454160  81.8970900   8.6085130  16.6537180  82.7090840
   8.6683870  15.6313510  81.5941570  14.0710270  17.6663110  83.0267560
  13.2203860  17.3668860  83.3476630  13.9112060  17.9105120  82.1151380
  11.1659980  19.1664860  85.1266350  11.4913390  18.3328610  84.7868580
  11.9540310  19.6893380  85.2744680   7.8994770  13.1996340  71.1741410
   7.2748950  13.1956210  71.8994720   7.8124890  12.3327300  70.7777380
   6.8211850  14.1232970  78.1525180   7.1184180  15.0295800  78.0717200
   7.3697410  13.6351750  77.5384750   4.5750170  18.7019210  74.0216830
   4.3491090  18.4856380  74.9263450   3.7942700  19.1347670  73.6762800
  11.8047930  18.7082580  72.6207480  11.2056820  19.4318380  72.4371100
  12.3527540  18.6459360  71.8383930   7.0149380  19.6004790  84.6877100
   6.9192980  18.6599520  84.5377500   7.8581360  19.8219860  84.2925170
  10.4112800  17.3446120  74.6510760  10.8042370  17.6618320  73.8379450
  10.7729650  16.4658000  74.7655280   8.7204970  16.0953430  85.9107620
   8.0303290  15.9025630  86.5453710   9.4637270  16.3788070  86.4431920
  10.9967940  19.9351870  78.7461540  10.2649060  20.4438680  79.0951640
  10.5992280  19.1181850  78.4450320   7.4345330  16.6106070  77.1514030
   7.4381390  16.1696020  76.3018570   8.3296450  16.9323400  77.2585850
   3.2847710  16.4932560  76.1108240   2.9447760  16.9707790  76.8675290
   2.5225030  16.0397680  75.7509340   7.4965480  17.6118150  70.1420790
   7.6178300  17.5704630  71.0906610   7.1113990  18.4742300  69.9867520
  11.4593850  15.3885550  78.1584480  11.4766590  15.8394200  79.0026330
  11.2109430  14.4891190  78.3717920   6.5086980  19.9219290  69.5404090
   5.9403880  19.4737540  68.9140000   7.2175980  20.2812070  69.0069240
  14.8864600  12.8017730  83.9970860  15.2110370  12.0707390  84.5228840
  14.9221110  12.4831370  83.0951850   7.7353300  20.6707850  78.8979440
   8.1023430  20.1966420  79.6440780   7.5458360  21.5449420  79.2387780
   5.5252670  19.7116490  81.2163650   5.2209740  20.5908470  81.4414010
   6.4799130  19.7716280  81.2521090   4.0534460  23.9177480  71.8130500
   3.2796720  23.3775100  71.6529220   4.7829090  23.3984090  71.4748260
  14.8122440  22.9142840  77.6056890  15.5321560  23.4098130  77.2153000
  14.6104260  22.2360730  76.9610760  10.2732380  14.3080800  71.7486280
   9.4596990  13.8093970  71.6731590  10.0794330  15.1479050  71.3322630
  10.1941240  22.9851900  83.4925890  10.1278550  22.0647570  83.2383480
   9.5646380  23.0827340  84.2070530  12.9880770  18.6800450  70.0448440
  13.8760390  18.9917680  69.8699780  12.9585860  17.8072700  69.6529020
   4.0971860  23.5857860  75.4509310   4.6150530  22.7826120  75.3966200
   3.6455880  23.5237000  76.2926140   8.9841360  24.8524140  70.7236610
   9.3257060  25.5966370  70.2279930   8.1554070  25.1655260  71.0861440
   4.7829520  21.0103470  85.2474560   4.4829660  21.1560650  84.3502380
   5.5540760  20.4508760  85.1547950  10.1257970  25.8072470  83.2429690
  10.1402510  24.8753430  83.0248600   9.4183070  25.8932230  83.8819460
  15.2595040  19.9912290  69.5128300  15.1758760  20.4226510  68.6624740
  15.9789230  20.4510640  69.9455120  16.3369180  22.4479810  82.5898270
  15.6117370  23.0408590  82.3927660  16.8644640  22.4403350  81.7911640
  16.2882290  26.8454550  72.2410430  15.6458450  26.1910170  72.5154150
  15.9012950  27.2509640  71.4651100  11.8668770  24.1739980  76.0882120
  12.2192590  23.5768110  75.4283490  10.9831100  23.8484210  76.2590370
   7.9532050  24.9337670  73.4952530   8.6403180  25.4806880  73.8760120
   7.1664470  25.4778400  73.5302140   7.2559260  21.9383700  73.1077890
   7.7122040  22.7488950  73.3338080   6.9047470  21.6206840  73.9396380
   9.5591870  27.4490040  80.3370190  10.2034090  27.6549420  81.0143610
   9.9221310  26.6878440  79.8841040   3.1571040  12.2821350  73.5800410
   3.0285670  12.2739250  74.5285330   2.3333060  12.6204440  73.2291420
  10.8323950  25.4522390  79.0547640  11.4746180  24.7515550  79.1679810
  11.3573300  26.2320830  78.8744530  14.6779670  25.7371010  68.7786780
  14.4517250  25.0201450  69.3711420  14.2875870  25.4883450  67.9408530
  12.6061570  26.2517290  82.2583700  12.9417810  26.8383980  82.9361620
  11.6861910  26.1210000  82.4881490  14.2595920  23.6542950  70.4400940
  13.9717620  24.1155640  71.2278820  15.0548090  23.1940720  70.7085160
   8.4350150  26.3008620  85.4271760   8.1147020  25.5817860  85.9717450
   7.7608510  26.9763690  85.5007820   6.4764320  27.1469070  70.3704910
   6.4674420  27.8798760  69.7549420   5.5562680  26.9000650  70.4631870
  11.6503750  16.5334780  80.7908560  12.0184570  15.7129990  81.1188130
  10.7901950  16.5936670  81.2064210  15.0165780  15.4891720  71.5996120
  14.3878940  15.5937390  70.8854350  14.5217700  15.7088500  72.3890000
   9.4623920  27.2097310  69.0330100   9.5635900  27.0061300  68.1032080
   8.5625660  26.9555590  69.2377880   6.9849810  17.7677670  73.0154000
   6.2765960  18.2364010  73.4567610   7.2694290  17.1099680  73.6499190
   8.6105740  19.1874370  81.0146530   9.1090990  19.6620190  81.6798380
   8.7528690  18.2637890  81.2216560  11.0165240  14.4928330  74.4549790
  10.8933020  14.5114460  73.5059300  11.9649800  14.5407270  74.5748190
   8.1042030  29.7283630  73.7277770   8.3583530  29.6905020  72.8057140
   7.1554510  29.6016960  73.7206020   5.1884830  16.0762750  70.3904710
   6.0375360  16.5132900  70.3244900   4.8216100  16.3883010  71.2176770
  15.8172600  15.4042330  81.8574920  15.3146200  16.1447730  82.1968730
  16.6329260  15.7926330  81.5411710  14.1094610  20.6475510  75.3036280
  13.1684750  20.6625740  75.4783970  14.4238680  19.8611470  75.7496580
   4.0876250  22.3295110  68.8640240   4.8539520  22.2176470  69.4265670
   4.1650940  21.6333080  68.2117010   2.7823010  19.7620180  69.5473130
   2.8626600  18.8147690  69.6590530   3.6742760  20.0927060  69.6533790
  16.1120190  27.8184360  76.9790540  16.2367610  28.6415530  77.4514350
  16.9785750  27.6075090  76.6314690   3.5837720  29.9115570  76.6507670
   4.3200200  29.3631030  76.9216240   3.9678640  30.7771580  76.5113660
   2.5896000  29.0961640  85.8393250   3.3908730  29.4173690  86.2528650
   2.0747820  28.7357220  86.5613160   6.6940030  29.0845880  68.4733240
   7.4868640  29.3734710  68.0215030   6.1744380  28.6538050  67.7945720
  11.4260630  25.2041510  85.7868660  10.8198790  25.2273110  85.0464410
  11.1214740  24.4724550  86.3235910  12.8561000  28.9321800  84.3978070
  13.8082750  28.8479820  84.3478310  12.7089220  29.5963510  85.0711860
  15.7470200  28.3116010  69.8969980  15.4611710  27.8981150  69.0824160
  15.5489750  29.2403720  69.7770500   7.2117430  24.3049290  68.3375590
   7.1068070  23.6901640  69.0636970   7.0441650  23.7815180  67.5538600
   7.3631750  22.9906090  84.3164820   6.5977420  23.5591090  84.2319490
   7.5447710  22.6982300  83.4233050  10.4520160  23.3669320  68.9417580
   9.9030260  23.8138620  69.5860320  11.0739420  22.8618570  69.4655250
  14.5055100  24.7211420  84.8739840  15.2464570  25.0587180  84.3707300
  13.7427780  24.8903480  84.3209610   2.3416890  19.7264690  85.6779370
   2.3822230  19.4278560  86.5864600   3.1962390  20.1272300  85.5186890
   6.1195280  22.3260240  70.8382880   6.5411700  22.1600110  71.6814270
   6.2446120  21.5160470  70.3438020   4.2822700  18.3056790  83.6453860
   3.7519160  17.8147740  83.0177200   4.9510770  18.7340990  83.1111790
   8.6322920  21.3497850  68.0859980   9.1528580  20.6346870  67.7201130
   9.2791320  21.9883720  68.3860490  13.1800760  22.7726250  83.4095050
  13.5941780  22.9271330  84.2585470  12.2451760  22.8981470  83.5720830
  13.6522930  20.1122410  85.4134200  14.2343700  19.3574730  85.3254680
  13.8284700  20.6429850  84.6365680   4.7695000  15.2719160  83.7251150
   4.6751870  14.6539910  83.0002020   4.1892390  15.9985450  83.4981060
   7.5356440  13.8292400  80.7578540   7.0873740  13.8516660  79.9124090
   6.9021640  13.4311420  81.3548840   7.9415990  22.7246730  81.3790980
   8.3604100  23.5679460  81.2067220   7.0224620  22.8618770  81.1497760
  10.2779890  20.4562910  82.7628820  10.3976100  19.8604050  83.5023660
  11.1373890  20.4932600  82.3430120  12.6167790  21.0100100  81.3391330
  12.0903010  21.5342720  80.7356470  12.9599130  21.6427490  81.9701060
   5.0154180  18.3993470  67.7841040   4.8143240  17.5360830  68.1454380
   4.8446230  18.3126830  66.8462640   5.7923410  29.0299740  82.4948710
   5.2544500  29.7545800  82.1757410   6.0457370  28.5530080  81.7046050
   7.0448660  16.9984260  84.0204640   7.6348350  16.6900110  84.7082460
   6.2268900  16.5264010  84.1764540  11.8642090  16.6150070  84.2537660
  11.1757610  15.9531610  84.1887650  12.5848110  16.1688340  84.6986120
  12.4942490  13.2101700  70.3127920  12.7744780  12.3669600  70.6687340
  11.7208220  13.4424810  70.8266670   3.8136980  15.4994090  67.7718920
   4.1162880  15.5061520  66.8638070   4.5531570  15.1491950  68.2686580
   8.6485620  30.2650950  82.7535360   8.5744320  31.1686090  83.0607730
   7.7464460  29.9462850  82.7257430   7.0321910  14.4428710  68.7575120
   6.6843910  13.7652700  68.1777570   7.2334680  13.9818220  69.5718510
   9.1970950  29.4309460  70.3761720  10.0921740  29.7694430  70.3980480
   9.2288580  28.7088870  69.7486000   2.8367110  24.8036510  68.6048720
   3.2741980  25.3466180  69.2606300   3.3214840  23.9783460  68.6145060
   4.6474830  25.9234550  73.7170950   4.3470370  25.7999520  74.6174860
   4.5412320  25.0643140  73.3086680  16.1765300  27.9613130  83.0827920
  15.5767290  28.0205690  82.3391840  16.3059200  27.0218110  83.2124770
  17.4166750  25.7030950  68.4197630  16.5859710  25.7707600  68.8904860
  17.5938580  26.5935070  68.1164490  16.8723210  22.4478430  70.9231830
  17.6342120  23.0175080  71.0291520  16.8877580  21.8805630  71.6940140
  17.8783180  23.3028530  75.7673760  18.2492010  22.5195850  75.3609730
  18.5185110  23.9917630  75.5891060  14.8616940  24.6865110  81.1804080
  14.0476780  25.1162270  81.4429870  15.2691140  25.2983520  80.5673130
  16.9242380  22.7412800  68.0804350  17.1991220  23.6491680  67.9523570
  16.7353120  22.6775330  69.0166340  13.3217990  15.7657650  69.3757980
  13.7402870  15.5788630  68.5354640  13.0154050  14.9136700  69.6860910
  16.8207720  20.6781790  73.0733780  16.4451320  19.9109720  72.6415070
  16.0910840  21.0604490  73.5608710  16.2107340  19.8253310  82.7073300
  15.9793430  19.5966060  81.8071250  16.4711890  20.7452860  82.6618190
  14.6495410  15.0509740  85.4853000  15.5265590  15.0593140  85.8687000
  14.6616250  14.3140580  84.8745350  16.0958680  18.9039280  76.3741020
  16.6196160  18.4101930  75.7431190  16.6818100  19.0389640  77.1188590
  16.2748400  18.9879150  79.8960570  15.3251110  18.9542690  80.0105560
  16.4561410  19.8979260  79.6610340   1.7767000  13.2920160  68.0461850
   2.4995130  13.8329100  68.3643070   2.0491520  13.0183580  67.1703390
  15.5858650  18.1612630  72.3133430  16.0817770  17.9283500  73.0982310
  15.3874720  17.3224470  71.8971070  17.0145810  16.7973580  74.8471110
  16.9045090  16.6429620  75.7853380  17.7753400  16.2694520  74.6046520
  15.3611530  12.7367710  81.3054110  15.9983750  13.3501850  81.6713300
  15.5086420  12.7728370  80.3603340  17.9036080  14.6281500  68.0877250
  18.8285390  14.4962680  67.8795540  17.8811870  14.7074320  69.0413700
  17.9774570  15.3992160  70.7133960  17.1826070  15.3337280  71.2426870
  18.1817850  16.3342800  70.7019310  14.9192990  29.4383710  74.7072350
  15.5152060  29.1168280  74.0306770  15.1771140  28.9655530  75.4985620
   2.8255560  25.8701620  84.8562980   2.7825190  25.4994530  85.7377440
   2.9566570  26.8079190  84.9964800   6.5261590  27.4261210  80.4572700
   6.2852950  27.6935770  79.5703220   7.4664230  27.5966940  80.5123560
   8.7316010  13.8893900  84.2129210   8.6704900  14.4815730  84.9624620
   9.6716390  13.7819860  84.0679470  11.3690570  13.5463960  83.8521500
  11.9830980  13.8643250  83.1902580  11.9140130  13.0612550  84.4717360
  17.7865750  29.4455590  81.2583340  17.2924030  29.8424460  80.5410470
  17.1779040  28.8204800  81.6520620   1.8911830  12.2258220  83.9660560
   2.4394820  12.0446270  83.2026670   1.9567140  11.4352330  84.5016870
   2.6643590  28.8163870  81.9760760   2.0703910  28.6848570  82.7150800
   2.6567430  27.9802010  81.5102860  12.1098610  12.1096100  80.1790790
  11.2358450  12.4431210  79.9763720  12.0009360  11.6369280  81.0042660
  13.0170590  14.3166970  81.5632510  12.6883950  13.5018730  81.1834240
  13.9652890  14.2736780  81.4398200  15.4705200  30.0879010  78.5370080
  15.0108170  30.8394820  78.1628100  14.8417660  29.3685480  78.4784880
   5.9000920  28.3967250  77.7118210   6.4165940  27.7854610  77.1866470
   6.5498300  28.8996030  78.2029220   8.6396420  29.2875740  78.5387190
   8.9274230  29.0330040  77.6620200   9.1519640  28.7353100  79.1292760
   9.8573430  13.0265940  79.1183700   9.0745220  13.5011440  79.3980460
   9.5636360  12.1220770  79.0096880  14.4094500  13.7289040  77.1632790
  14.8502590  13.6734140  76.3154390  14.1402090  14.6447050  77.2342970
  16.2733070  13.3604280  75.1741610  16.2121470  12.4165500  75.0272630
  17.0525100  13.4684370  75.7195070   7.7427650  15.4452690  74.6299730
   6.9302160  15.0709580  74.2895610   8.2469290  14.6897770  74.9320920
  12.2452630  12.1095140  75.8682800  12.8482000  12.6815350  76.3431320
  11.5045620  12.6734580  75.6456700  15.3887230  12.5116700  71.1423080
  15.5837860  13.4100150  71.4090510  14.6017100  12.2803780  71.6356030
   2.1848520  28.1929870  71.5815700   1.6596140  28.5737900  70.8777660
   2.1093100  28.8180640  72.3025410   3.5738990  13.8577470  70.1799390
   4.1031750  13.0707270  70.0507340   4.2067310  14.5368660  70.4134920
   5.7676830  13.5952610  73.2344780   5.1379570  12.8939920  73.4014910
   5.2281970  14.3556740  73.0177940   8.7068780  30.2091840  85.9055390
   9.6336090  29.9736110  85.9491350   8.6919210  31.0363840  85.4241420
  16.9413840  29.7517410  72.9029640  17.1166030  29.0655150  72.2590560
  16.2435410  30.2764460  72.5106310   5.8932390  12.8736590  85.6697270
   5.6116660  13.3770190  84.9058090   6.2752090  12.0758340  85.3039400
   4.7841490  30.1412250  70.4564950   5.5160310  29.8571530  69.9088840
   5.0435160  29.9025530  71.3464330   3.9456280  26.2576980  70.4611280
   3.3165160  26.7262080  71.0097110   4.0604110  25.4126200  70.8957470
  12.4947850  12.2890170  86.2477740  12.3813300  12.6084780  87.1429260
  13.3117590  12.6902680  85.9515020  15.2746340  29.4361700  85.7296430
  16.0671660  28.9410930  85.5222390  15.5679490  30.1151840  86.3372040
  11.4006000  20.3082640  56.6112480  11.3200050  19.3937250  56.3404190
  10.9870420  20.8049710  55.9052190   9.5324040  22.0861660  58.4921750
   8.7566140  21.6062100  58.7820320  10.1836970  21.4067310  58.3177910
   3.5489870  22.3981470  59.3697510   2.7174750  22.1430180  59.7694020
   4.1570850  22.4692240  60.1055430  13.5531470  26.4921850  57.2720880
  13.0913000  25.7209090  57.6008050  14.3657020  26.5187920  57.7773330
   3.5291130  26.4321560  59.5655530   3.8319170  25.5419300  59.3865750
   4.2734720  26.9891780  59.3377780   9.7794780  28.7779860  56.8924870
   9.1606220  29.2337360  56.3219310  10.6346560  28.9331320  56.4914570
   8.9733030  24.7618850  58.4991910   8.9041310  23.8208790  58.3381040
   9.7352890  24.8520260  59.0714480  10.0038200  17.5689230  58.7260840
  10.3803020  16.6961110  58.6134510   9.9057710  17.9047930  57.8351280
   4.1343210  15.9414860  54.1878280   4.2409960  16.8418590  54.4947040
   3.2235570  15.8932830  53.8972930  13.7862320  15.0639670  55.6589180
  14.6071940  14.5736240  55.7014660  13.8196400  15.6537330  56.4121020
   5.9750940  18.9101230  58.5203460   6.4829160  19.4082200  59.1608480
   6.5064180  18.1336430  58.3442820  18.0761870  17.0806420  62.2232810
  17.3714040  17.4688130  61.7047920  18.3419790  17.7756710  62.8253740
   4.2587040  13.5499790  62.7866880   4.2605480  14.0672180  61.9812780
   3.4291350  13.0729970  62.7636810  10.6458130  23.6619100  54.2856780
  10.0275400  24.1268550  53.7219500  11.1581380  24.3546580  54.7026290
   5.5089890  23.1894970  60.9640380   5.1759270  23.8163890  61.6061450
   5.6856570  23.7156850  60.1842050  14.0223800  17.0040050  58.4316720
  13.3179370  17.2924940  59.0119830  14.3835960  17.8140160  58.0716280
   3.9402370  15.2609750  60.7937330   4.2819180  16.1051800  60.4991200
   3.0018180  15.4093490  60.9102670   4.7208990  25.1575770  62.7789560
   5.3382990  25.8326850  62.4974010   3.8602110  25.5663750  62.6877060
  15.6386580  26.6215180  60.6944200  14.9550100  27.2914290  60.6860870
  16.1780870  26.8195830  59.9289060  17.0910720  16.4494840  58.8225930
  16.1435630  16.4833820  58.9541360  17.4160710  17.2633790  59.2075290
   7.6230260  12.7492020  57.1181920   7.9305240  12.1938910  56.4017420
   6.6930960  12.8836480  56.9354910  13.1745320  28.4659310  59.4089380
  13.1872480  28.0621600  58.5411640  12.6220540  29.2406600  59.3050810
  14.4690740  25.1875530  54.4979550  14.3587070  24.2449860  54.6228970
  14.4658990  25.5491170  55.3842310  12.5730760  23.3689150  60.7371990
  12.9899550  23.1549260  59.9025450  13.2970580  23.6261940  61.3080610
  10.0111020  20.8140850  53.8542040   9.0840300  20.7478230  54.0830510
  10.1635840  21.7520980  53.7397280   9.9980100  17.0857850  50.8509200
   9.0583770  17.2471810  50.9361660  10.3163360  17.8043530  50.3045190
  16.5192860  21.7676370  60.8288230  15.6911490  21.8369460  60.3538360
  17.1143340  22.3530680  60.3604060  14.0408310  22.3761150  54.3577290
  13.4220730  22.0380700  53.7103590  14.0232760  21.7320910  55.0656480
  13.4834870  18.5545690  61.7743100  13.0706050  19.3799400  62.0283090
  12.7510820  17.9690730  61.5819460   5.6167660  21.3405590  56.6361770
   5.2124660  20.6282840  56.1407670   5.7030780  20.9958830  57.5249810
   6.0849360  25.0273150  58.8000980   5.7877650  24.4218620  58.1208760
   7.0349180  25.0650460  58.6890340   4.3296280  18.1148800  60.4160810
   4.8810870  18.2244140  59.6414060   4.8439790  18.4886400  61.1316040
  14.1734970  28.6005020  62.4624080  13.6965530  29.4077210  62.2696690
  13.4896760  27.9483350  62.6150290   5.1767790  24.7654840  65.4508780
   4.2796320  24.9894810  65.6982180   5.2020660  24.8889780  64.5020180
  12.2173010  21.6147960  51.3650040  12.6566290  20.7770390  51.2187860
  12.9301430  22.2477360  51.4514180   4.0039010  21.6368160  64.0266150
   3.8646780  22.5090960  64.3953550   3.1220370  21.2940970  63.8814090
  10.3268390  26.5544030  55.3331280  10.7664300  27.2968360  54.9186670
  10.2655280  26.7970600  56.2570240   5.8019360  27.5789860  66.2351300
   5.7734790  27.9832810  65.3679730   5.6384330  26.6500220  66.0722900
  15.7990150  12.8690770  49.6791080  15.4862810  12.9617600  50.5790150
  16.5602620  13.4471800  49.6288510   2.3172290  20.2350570  54.1368420
   2.1969890  20.9612660  53.5249690   2.0073180  19.4653480  53.6596330
  17.7534180  28.3616960  67.5315470  18.2293900  28.8399850  68.2104550
  18.3741340  28.2934450  66.8060970  17.1567430  25.5529810  64.6915480
  17.2830490  25.3141690  63.7732660  17.1988810  24.7214350  65.1637560
  11.0184170  29.2557810  63.2610290  11.5328840  29.1665820  64.0632720
  10.1753250  29.6017510  63.5538200  12.9938570  29.5413150  52.6894290
  12.8339710  29.2516090  53.5876120  12.8285280  28.7653280  52.1539520
   5.4726950  29.3211680  54.4665910   5.2969430  28.4047220  54.2533710
   4.6182690  29.6798970  54.7063710  12.6964700  27.0500710  51.2492290
  12.0029860  27.0478000  50.5894570  13.4387560  26.6260030  50.8186460
  12.2614630  28.6763420  55.3240780  12.7171580  27.8952800  55.6379400
  12.6007150  29.3870240  55.8681960  17.0091440  17.6062270  65.6565220
  16.3935710  18.1141940  65.1280680  16.6887860  16.7060600  65.5991160
   4.7835950  13.5785640  57.5192090   4.3404100  14.3595180  57.1876610
   5.3420940  13.9015530  58.2263030   9.0705760  16.4454160  63.1227410
   8.6085130  16.6537180  63.9347350   8.6683870  15.6313510  62.8198080
  14.0710270  17.6663110  64.2524070  13.2203860  17.3668860  64.5733140
  13.9112060  17.9105120  63.3407890  11.1659980  19.1664860  66.3522860
  11.4913390  18.3328610  66.0125090  11.9540310  19.6893380  66.5001190
   7.8994770  13.1996340  52.3997920   7.2748950  13.1956210  53.1251230
   7.8124890  12.3327300  52.0033890   6.8211850  14.1232970  59.3781690
   7.1184180  15.0295800  59.2973710   7.3697410  13.6351750  58.7641260
   4.5750170  18.7019210  55.2473340   4.3491090  18.4856380  56.1519960
   3.7942700  19.1347670  54.9019310  11.8047930  18.7082580  53.8463990
  11.2056820  19.4318380  53.6627610  12.3527540  18.6459360  53.0640440
   7.0149380  19.6004790  65.9133610   6.9192980  18.6599520  65.7634010
   7.8581360  19.8219860  65.5181680  10.4112800  17.3446120  55.8767270
  10.8042370  17.6618320  55.0635960  10.7729650  16.4658000  55.9911790
   8.7204970  16.0953430  67.1364130   8.0303290  15.9025630  67.7710220
   9.4637270  16.3788070  67.6688430  10.9967940  19.9351870  59.9718050
  10.2649060  20.4438680  60.3208150  10.5992280  19.1181850  59.6706830
   7.4345330  16.6106070  58.3770540   7.4381390  16.1696020  57.5275080
   8.3296450  16.9323400  58.4842360   3.2847710  16.4932560  57.3364750
   2.9447760  16.9707790  58.0931800   2.5225030  16.0397680  56.9765850
   7.4965480  17.6118150  51.3677300   7.6178300  17.5704630  52.3163120
   7.1113990  18.4742300  51.2124030  11.4593850  15.3885550  59.3840990
  11.4766590  15.8394200  60.2282840  11.2109430  14.4891190  59.5974430
   6.5086980  19.9219290  50.7660600   5.9403880  19.4737540  50.1396510
   7.2175980  20.2812070  50.2325750  14.8864600  12.8017730  65.2227370
  15.2110370  12.0707390  65.7485350  14.9221110  12.4831370  64.3208360
   7.7353300  20.6707850  60.1235950   8.1023430  20.1966420  60.8697290
   7.5458360  21.5449420  60.4644290   5.5252670  19.7116490  62.4420160
   5.2209740  20.5908470  62.6670520   6.4799130  19.7716280  62.4777600
   4.0534460  23.9177480  53.0387010   3.2796720  23.3775100  52.8785730
   4.7829090  23.3984090  52.7004770  14.8122440  22.9142840  58.8313400
  15.5321560  23.4098130  58.4409510  14.6104260  22.2360730  58.1867270
  10.2732380  14.3080800  52.9742790   9.4596990  13.8093970  52.8988100
  10.0794330  15.1479050  52.5579140  10.1941240  22.9851900  64.7182400
  10.1278550  22.0647570  64.4639990   9.5646380  23.0827340  65.4327040
  12.9880770  18.6800450  51.2704950  13.8760390  18.9917680  51.0956290
  12.9585860  17.8072700  50.8785530   4.0971860  23.5857860  56.6765820
   4.6150530  22.7826120  56.6222710   3.6455880  23.5237000  57.5182650
   8.9841360  24.8524140  51.9493120   9.3257060  25.5966370  51.4536440
   8.1554070  25.1655260  52.3117950   4.7829520  21.0103470  66.4731070
   4.4829660  21.1560650  65.5758890   5.5540760  20.4508760  66.3804460
  10.1257970  25.8072470  64.4686200  10.1402510  24.8753430  64.2505110
   9.4183070  25.8932230  65.1075970  15.2595040  19.9912290  50.7384810
  15.1758760  20.4226510  49.8881250  15.9789230  20.4510640  51.1711630
  16.3369180  22.4479810  63.8154780  15.6117370  23.0408590  63.6184170
  16.8644640  22.4403350  63.0168150  16.2882290  26.8454550  53.4666940
  15.6458450  26.1910170  53.7410660  15.9012950  27.2509640  52.6907610
  11.8668770  24.1739980  57.3138630  12.2192590  23.5768110  56.6540000
  10.9831100  23.8484210  57.4846880   7.9532050  24.9337670  54.7209040
   8.6403180  25.4806880  55.1016630   7.1664470  25.4778400  54.7558650
   7.2559260  21.9383700  54.3334400   7.7122040  22.7488950  54.5594590
   6.9047470  21.6206840  55.1652890   9.5591870  27.4490040  61.5626700
  10.2034090  27.6549420  62.2400120   9.9221310  26.6878440  61.1097550
   3.1571040  12.2821350  54.8056920   3.0285670  12.2739250  55.7541840
   2.3333060  12.6204440  54.4547930  10.8323950  25.4522390  60.2804150
  11.4746180  24.7515550  60.3936320  11.3573300  26.2320830  60.1001040
  14.6779670  25.7371010  50.0043290  14.4517250  25.0201450  50.5967930
  14.2875870  25.4883450  49.1665040  12.6061570  26.2517290  63.4840210
  12.9417810  26.8383980  64.1618130  11.6861910  26.1210000  63.7138000
  14.2595920  23.6542950  51.6657450  13.9717620  24.1155640  52.4535330
  15.0548090  23.1940720  51.9341670   8.4350150  26.3008620  66.6528270
   8.1147020  25.5817860  67.1973960   7.7608510  26.9763690  66.7264330
   6.4764320  27.1469070  51.5961420   6.4674420  27.8798760  50.9805930
   5.5562680  26.9000650  51.6888380  11.6503750  16.5334780  62.0165070
  12.0184570  15.7129990  62.3444640  10.7901950  16.5936670  62.4320720
  15.0165780  15.4891720  52.8252630  14.3878940  15.5937390  52.1110860
  14.5217700  15.7088500  53.6146510   9.4623920  27.2097310  50.2586610
   9.5635900  27.0061300  49.3288590   8.5625660  26.9555590  50.4634390
   6.9849810  17.7677670  54.2410510   6.2765960  18.2364010  54.6824120
   7.2694290  17.1099680  54.8755700   8.6105740  19.1874370  62.2403040
   9.1090990  19.6620190  62.9054890   8.7528690  18.2637890  62.4473070
  11.0165240  14.4928330  55.6806300  10.8933020  14.5114460  54.7315810
  11.9649800  14.5407270  55.8004700   8.1042030  29.7283630  54.9534280
   8.3583530  29.6905020  54.0313650   7.1554510  29.6016960  54.9462530
   5.1884830  16.0762750  51.6161220   6.0375360  16.5132900  51.5501410
   4.8216100  16.3883010  52.4433280  15.8172600  15.4042330  63.0831430
  15.3146200  16.1447730  63.4225240  16.6329260  15.7926330  62.7668220
  14.1094610  20.6475510  56.5292790  13.1684750  20.6625740  56.7040480
  14.4238680  19.8611470  56.9753090   4.0876250  22.3295110  50.0896750
   4.8539520  22.2176470  50.6522180   4.1650940  21.6333080  49.4373520
   2.7823010  19.7620180  50.7729640   2.8626600  18.8147690  50.8847040
   3.6742760  20.0927060  50.8790300  16.1120190  27.8184360  58.2047050
  16.2367610  28.6415530  58.6770860  16.9785750  27.6075090  57.8571200
   3.5837720  29.9115570  57.8764180   4.3200200  29.3631030  58.1472750
   3.9678640  30.7771580  57.7370170   2.5896000  29.0961640  67.0649760
   3.3908730  29.4173690  67.4785160   2.0747820  28.7357220  67.7869670
   6.6940030  29.0845880  49.6989750   7.4868640  29.3734710  49.2471540
   6.1744380  28.6538050  49.0202230  11.4260630  25.2041510  67.0125170
  10.8198790  25.2273110  66.2720920  11.1214740  24.4724550  67.5492420
  12.8561000  28.9321800  65.6234580  13.8082750  28.8479820  65.5734820
  12.7089220  29.5963510  66.2968370  15.7470200  28.3116010  51.1226490
  15.4611710  27.8981150  50.3080670  15.5489750  29.2403720  51.0027010
   7.2117430  24.3049290  49.5632100   7.1068070  23.6901640  50.2893480
   7.0441650  23.7815180  48.7795110   7.3631750  22.9906090  65.5421330
   6.5977420  23.5591090  65.4576000   7.5447710  22.6982300  64.6489560
  10.4520160  23.3669320  50.1674090   9.9030260  23.8138620  50.8116830
  11.0739420  22.8618570  50.6911760  14.5055100  24.7211420  66.0996350
  15.2464570  25.0587180  65.5963810  13.7427780  24.8903480  65.5466120
   2.3416890  19.7264690  66.9035880   2.3822230  19.4278560  67.8121110
   3.1962390  20.1272300  66.7443400   6.1195280  22.3260240  52.0639390
   6.5411700  22.1600110  52.9070780   6.2446120  21.5160470  51.5694530
   4.2822700  18.3056790  64.8710370   3.7519160  17.8147740  64.2433710
   4.9510770  18.7340990  64.3368300   8.6322920  21.3497850  49.3116490
   9.1528580  20.6346870  48.9457640   9.2791320  21.9883720  49.6117000
  13.1800760  22.7726250  64.6351560  13.5941780  22.9271330  65.4841980
  12.2451760  22.8981470  64.7977340  13.6522930  20.1122410  66.6390710
  14.2343700  19.3574730  66.5511190  13.8284700  20.6429850  65.8622190
   4.7695000  15.2719160  64.9507660   4.6751870  14.6539910  64.2258530
   4.1892390  15.9985450  64.7237570   7.5356440  13.8292400  61.9835050
   7.0873740  13.8516660  61.1380600   6.9021640  13.4311420  62.5805350
   7.9415990  22.7246730  62.6047490   8.3604100  23.5679460  62.4323730
   7.0224620  22.8618770  62.3754270  10.2779890  20.4562910  63.9885330
  10.3976100  19.8604050  64.7280170  11.1373890  20.4932600  63.5686630
  12.6167790  21.0100100  62.5647840  12.0903010  21.5342720  61.9612980
  12.9599130  21.6427490  63.1957570   5.0154180  18.3993470  49.0097550
   4.8143240  17.5360830  49.3710890   4.8446230  18.3126830  48.0719150
   5.7923410  29.0299740  63.7205220   5.2544500  29.7545800  63.4013920
   6.0457370  28.5530080  62.9302560   7.0448660  16.9984260  65.2461150
   7.6348350  16.6900110  65.9338970   6.2268900  16.5264010  65.4021050
  11.8642090  16.6150070  65.4794170  11.1757610  15.9531610  65.4144160
  12.5848110  16.1688340  65.9242630  12.4942490  13.2101700  51.5384430
  12.7744780  12.3669600  51.8943850  11.7208220  13.4424810  52.0523180
   3.8136980  15.4994090  48.9975430   4.1162880  15.5061520  48.0894580
   4.5531570  15.1491950  49.4943090   8.6485620  30.2650950  63.9791870
   8.5744320  31.1686090  64.2864240   7.7464460  29.9462850  63.9513940
   7.0321910  14.4428710  49.9831630   6.6843910  13.7652700  49.4034080
   7.2334680  13.9818220  50.7975020   9.1970950  29.4309460  51.6018230
  10.0921740  29.7694430  51.6236990   9.2288580  28.7088870  50.9742510
   2.8367110  24.8036510  49.8305230   3.2741980  25.3466180  50.4862810
   3.3214840  23.9783460  49.8401570   4.6474830  25.9234550  54.9427460
   4.3470370  25.7999520  55.8431370   4.5412320  25.0643140  54.5343190
  16.1765300  27.9613130  64.3084430  15.5767290  28.0205690  63.5648350
  16.3059200  27.0218110  64.4381280  17.4166750  25.7030950  49.6454140
  16.5859710  25.7707600  50.1161370  17.5938580  26.5935070  49.3421000
  16.8723210  22.4478430  52.1488340  17.6342120  23.0175080  52.2548030
  16.8877580  21.8805630  52.9196650  17.8783180  23.3028530  56.9930270
  18.2492010  22.5195850  56.5866240  18.5185110  23.9917630  56.8147570
  14.8616940  24.6865110  62.4060590  14.0476780  25.1162270  62.6686380
  15.2691140  25.2983520  61.7929640  16.9242380  22.7412800  49.3060860
  17.1991220  23.6491680  49.1780080  16.7353120  22.6775330  50.2422850
  13.3217990  15.7657650  50.6014490  13.7402870  15.5788630  49.7611150
  13.0154050  14.9136700  50.9117420  16.8207720  20.6781790  54.2990290
  16.4451320  19.9109720  53.8671580  16.0910840  21.0604490  54.7865220
  16.2107340  19.8253310  63.9329810  15.9793430  19.5966060  63.0327760
  16.4711890  20.7452860  63.8874700  14.6495410  15.0509740  66.7109510
  15.5265590  15.0593140  67.0943510  14.6616250  14.3140580  66.1001860
  16.0958680  18.9039280  57.5997530  16.6196160  18.4101930  56.9687700
  16.6818100  19.0389640  58.3445100  16.2748400  18.9879150  61.1217080
  15.3251110  18.9542690  61.2362070  16.4561410  19.8979260  60.8866850
   1.7767000  13.2920160  49.2718360   2.4995130  13.8329100  49.5899580
   2.0491520  13.0183580  48.3959900  15.5858650  18.1612630  53.5389940
  16.0817770  17.9283500  54.3238820  15.3874720  17.3224470  53.1227580
  17.0145810  16.7973580  56.0727620  16.9045090  16.6429620  57.0109890
  17.7753400  16.2694520  55.8303030  15.3611530  12.7367710  62.5310620
  15.9983750  13.3501850  62.8969810  15.5086420  12.7728370  61.5859850
  17.9036080  14.6281500  49.3133760  18.8285390  14.4962680  49.1052050
  17.8811870  14.7074320  50.2670210  17.9774570  15.3992160  51.9390470
  17.1826070  15.3337280  52.4683380  18.1817850  16.3342800  51.9275820
  14.9192990  29.4383710  55.9328860  15.5152060  29.1168280  55.2563280
  15.1771140  28.9655530  56.7242130   2.8255560  25.8701620  66.0819490
   2.7825190  25.4994530  66.9633950   2.9566570  26.8079190  66.2221310
   6.5261590  27.4261210  61.6829210   6.2852950  27.6935770  60.7959730
   7.4664230  27.5966940  61.7380070   8.7316010  13.8893900  65.4385720
   8.6704900  14.4815730  66.1881130   9.6716390  13.7819860  65.2935980
  11.3690570  13.5463960  65.0778010  11.9830980  13.8643250  64.4159090
  11.9140130  13.0612550  65.6973870  17.7865750  29.4455590  62.4839850
  17.2924030  29.8424460  61.7666980  17.1779040  28.8204800  62.8777130
   1.8911830  12.2258220  65.1917070   2.4394820  12.0446270  64.4283180
   1.9567140  11.4352330  65.7273380   2.6643590  28.8163870  63.2017270
   2.0703910  28.6848570  63.9407310   2.6567430  27.9802010  62.7359370
  12.1098610  12.1096100  61.4047300  11.2358450  12.4431210  61.2020230
  12.0009360  11.6369280  62.2299170  13.0170590  14.3166970  62.7889020
  12.6883950  13.5018730  62.4090750  13.9652890  14.2736780  62.6654710
  15.4705200  30.0879010  59.7626590  15.0108170  30.8394820  59.3884610
  14.8417660  29.3685480  59.7041390   5.9000920  28.3967250  58.9374720
   6.4165940  27.7854610  58.4122980   6.5498300  28.8996030  59.4285730
   8.6396420  29.2875740  59.7643700   8.9274230  29.0330040  58.8876710
   9.1519640  28.7353100  60.3549270   9.8573430  13.0265940  60.3440210
   9.0745220  13.5011440  60.6236970   9.5636360  12.1220770  60.2353390
  14.4094500  13.7289040  58.3889300  14.8502590  13.6734140  57.5410900
  14.1402090  14.6447050  58.4599480  16.2733070  13.3604280  56.3998120
  16.2121470  12.4165500  56.2529140  17.0525100  13.4684370  56.9451580
   7.7427650  15.4452690  55.8556240   6.9302160  15.0709580  55.5152120
   8.2469290  14.6897770  56.1577430  12.2452630  12.1095140  57.0939310
  12.8482000  12.6815350  57.5687830  11.5045620  12.6734580  56.8713210
  15.3887230  12.5116700  52.3679590  15.5837860  13.4100150  52.6347020
  14.6017100  12.2803780  52.8612540   2.1848520  28.1929870  52.8072210
   1.6596140  28.5737900  52.1034170   2.1093100  28.8180640  53.5281920
   3.5738990  13.8577470  51.4055900   4.1031750  13.0707270  51.2763850
   4.2067310  14.5368660  51.6391430   5.7676830  13.5952610  54.4601290
   5.1379570  12.8939920  54.6271420   5.2281970  14.3556740  54.2434450
   8.7068780  30.2091840  67.1311900   9.6336090  29.9736110  67.1747860
   8.6919210  31.0363840  66.6497930  16.9413840  29.7517410  54.1286150
  17.1166030  29.0655150  53.4847070  16.2435410  30.2764460  53.7362820
   5.8932390  12.8736590  66.8953780   5.6116660  13.3770190  66.1314600
   6.2752090  12.0758340  66.5295910   4.7841490  30.1412250  51.6821460
   5.5160310  29.8571530  51.1345350   5.0435160  29.9025530  52.5720840
   3.9456280  26.2576980  51.6867790   3.3165160  26.7262080  52.2353620
   4.0604110  25.4126200  52.1213980  12.4947850  12.2890170  67.4734250
  12.3813300  12.6084780  68.3685770  13.3117590  12.6902680  67.1771530
  15.2746340  29.4361700  66.9552940  16.0671660  28.9410930  66.7478900
  15.5679490  30.1151840  67.5628550  11.4006000  20.3082640  37.8368990
  11.3200050  19.3937250  37.5660700  10.9870420  20.8049710  37.1308700
   9.5324040  22.0861660  39.7178260   8.7566140  21.6062100  40.0076830
  10.1836970  21.4067310  39.5434420   3.5489870  22.3981470  40.5954020
   2.7174750  22.1430180  40.9950530   4.1570850  22.4692240  41.3311940
  13.5531470  26.4921850  38.4977390  13.0913000  25.7209090  38.8264560
  14.3657020  26.5187920  39.0029840   3.5291130  26.4321560  40.7912040
   3.8319170  25.5419300  40.6122260   4.2734720  26.9891780  40.5634290
   9.7794780  28.7779860  38.1181380   9.1606220  29.2337360  37.5475820
  10.6346560  28.9331320  37.7171080   8.9733030  24.7618850  39.7248420
   8.9041310  23.8208790  39.5637550   9.7352890  24.8520260  40.2970990
  10.0038200  17.5689230  39.9517350  10.3803020  16.6961110  39.8391020
   9.9057710  17.9047930  39.0607790   4.1343210  15.9414860  35.4134790
   4.2409960  16.8418590  35.7203550   3.2235570  15.8932830  35.1229440
  13.7862320  15.0639670  36.8845690  14.6071940  14.5736240  36.9271170
  13.8196400  15.6537330  37.6377530   5.9750940  18.9101230  39.7459970
   6.4829160  19.4082200  40.3864990   6.5064180  18.1336430  39.5699330
  18.0761870  17.0806420  43.4489320  17.3714040  17.4688130  42.9304430
  18.3419790  17.7756710  44.0510250   4.2587040  13.5499790  44.0123390
   4.2605480  14.0672180  43.2069290   3.4291350  13.0729970  43.9893320
  10.6458130  23.6619100  35.5113290  10.0275400  24.1268550  34.9476010
  11.1581380  24.3546580  35.9282800   5.5089890  23.1894970  42.1896890
   5.1759270  23.8163890  42.8317960   5.6856570  23.7156850  41.4098560
  14.0223800  17.0040050  39.6573230  13.3179370  17.2924940  40.2376340
  14.3835960  17.8140160  39.2972790   3.9402370  15.2609750  42.0193840
   4.2819180  16.1051800  41.7247710   3.0018180  15.4093490  42.1359180
   4.7208990  25.1575770  44.0046070   5.3382990  25.8326850  43.7230520
   3.8602110  25.5663750  43.9133570  15.6386580  26.6215180  41.9200710
  14.9550100  27.2914290  41.9117380  16.1780870  26.8195830  41.1545570
  17.0910720  16.4494840  40.0482440  16.1435630  16.4833820  40.1797870
  17.4160710  17.2633790  40.4331800   7.6230260  12.7492020  38.3438430
   7.9305240  12.1938910  37.6273930   6.6930960  12.8836480  38.1611420
  13.1745320  28.4659310  40.6345890  13.1872480  28.0621600  39.7668150
  12.6220540  29.2406600  40.5307320  14.4690740  25.1875530  35.7236060
  14.3587070  24.2449860  35.8485480  14.4658990  25.5491170  36.6098820
  12.5730760  23.3689150  41.9628500  12.9899550  23.1549260  41.1281960
  13.2970580  23.6261940  42.5337120  10.0111020  20.8140850  35.0798550
   9.0840300  20.7478230  35.3087020  10.1635840  21.7520980  34.9653790
   9.9980100  17.0857850  32.0765710   9.0583770  17.2471810  32.1618170
  10.3163360  17.8043530  31.5301700  16.5192860  21.7676370  42.0544740
  15.6911490  21.8369460  41.5794870  17.1143340  22.3530680  41.5860570
  14.0408310  22.3761150  35.5833800  13.4220730  22.0380700  34.9360100
  14.0232760  21.7320910  36.2912990  13.4834870  18.5545690  42.9999610
  13.0706050  19.3799400  43.2539600  12.7510820  17.9690730  42.8075970
   5.6167660  21.3405590  37.8618280   5.2124660  20.6282840  37.3664180
   5.7030780  20.9958830  38.7506320   6.0849360  25.0273150  40.0257490
   5.7877650  24.4218620  39.3465270   7.0349180  25.0650460  39.9146850
   4.3296280  18.1148800  41.6417320   4.8810870  18.2244140  40.8670570
   4.8439790  18.4886400  42.3572550  14.1734970  28.6005020  43.6880590
  13.6965530  29.4077210  43.4953200  13.4896760  27.9483350  43.8406800
   5.1767790  24.7654840  46.6765290   4.2796320  24.9894810  46.9238690
   5.2020660  24.8889780  45.7276690  12.2173010  21.6147960  32.5906550
  12.6566290  20.7770390  32.4444370  12.9301430  22.2477360  32.6770690
   4.0039010  21.6368160  45.2522660   3.8646780  22.5090960  45.6210060
   3.1220370  21.2940970  45.1070600  10.3268390  26.5544030  36.5587790
  10.7664300  27.2968360  36.1443180  10.2655280  26.7970600  37.4826750
   5.8019360  27.5789860  47.4607810   5.7734790  27.9832810  46.5936240
   5.6384330  26.6500220  47.2979410  15.7990150  12.8690770  30.9047590
  15.4862810  12.9617600  31.8046660  16.5602620  13.4471800  30.8545020
   2.3172290  20.2350570  35.3624930   2.1969890  20.9612660  34.7506200
   2.0073180  19.4653480  34.8852840  17.7534180  28.3616960  48.7571980
  18.2293900  28.8399850  49.4361060  18.3741340  28.2934450  48.0317480
  17.1567430  25.5529810  45.9171990  17.2830490  25.3141690  44.9989170
  17.1988810  24.7214350  46.3894070  11.0184170  29.2557810  44.4866800
  11.5328840  29.1665820  45.2889230  10.1753250  29.6017510  44.7794710
  12.9938570  29.5413150  33.9150800  12.8339710  29.2516090  34.8132630
  12.8285280  28.7653280  33.3796030   5.4726950  29.3211680  35.6922420
   5.2969430  28.4047220  35.4790220   4.6182690  29.6798970  35.9320220
  12.6964700  27.0500710  32.4748800  12.0029860  27.0478000  31.8151080
  13.4387560  26.6260030  32.0442970  12.2614630  28.6763420  36.5497290
  12.7171580  27.8952800  36.8635910  12.6007150  29.3870240  37.0938470
  17.0091440  17.6062270  46.8821730  16.3935710  18.1141940  46.3537190
  16.6887860  16.7060600  46.8247670   4.7835950  13.5785640  38.7448600
   4.3404100  14.3595180  38.4133120   5.3420940  13.9015530  39.4519540
   9.0705760  16.4454160  44.3483920   8.6085130  16.6537180  45.1603860
   8.6683870  15.6313510  44.0454590  14.0710270  17.6663110  45.4780580
  13.2203860  17.3668860  45.7989650  13.9112060  17.9105120  44.5664400
  11.1659980  19.1664860  47.5779370  11.4913390  18.3328610  47.2381600
  11.9540310  19.6893380  47.7257700   7.8994770  13.1996340  33.6254430
   7.2748950  13.1956210  34.3507740   7.8124890  12.3327300  33.2290400
   6.8211850  14.1232970  40.6038200   7.1184180  15.0295800  40.5230220
   7.3697410  13.6351750  39.9897770   4.5750170  18.7019210  36.4729850
   4.3491090  18.4856380  37.3776470   3.7942700  19.1347670  36.1275820
  11.8047930  18.7082580  35.0720500  11.2056820  19.4318380  34.8884120
  12.3527540  18.6459360  34.2896950   7.0149380  19.6004790  47.1390120
   6.9192980  18.6599520  46.9890520   7.8581360  19.8219860  46.7438190
  10.4112800  17.3446120  37.1023780  10.8042370  17.6618320  36.2892470
  10.7729650  16.4658000  37.2168300   8.7204970  16.0953430  48.3620640
   8.0303290  15.9025630  48.9966730   9.4637270  16.3788070  48.8944940
  10.9967940  19.9351870  41.1974560  10.2649060  20.4438680  41.5464660
  10.5992280  19.1181850  40.8963340   7.4345330  16.6106070  39.6027050
   7.4381390  16.1696020  38.7531590   8.3296450  16.9323400  39.7098870
   3.2847710  16.4932560  38.5621260   2.9447760  16.9707790  39.3188310
   2.5225030  16.0397680  38.2022360   7.4965480  17.6118150  32.5933810
   7.6178300  17.5704630  33.5419630   7.1113990  18.4742300  32.4380540
  11.4593850  15.3885550  40.6097500  11.4766590  15.8394200  41.4539350
  11.2109430  14.4891190  40.8230940   6.5086980  19.9219290  31.9917110
   5.9403880  19.4737540  31.3653020   7.2175980  20.2812070  31.4582260
  14.8864600  12.8017730  46.4483880  15.2110370  12.0707390  46.9741860
  14.9221110  12.4831370  45.5464870   7.7353300  20.6707850  41.3492460
   8.1023430  20.1966420  42.0953800   7.5458360  21.5449420  41.6900800
   5.5252670  19.7116490  43.6676670   5.2209740  20.5908470  43.8927030
   6.4799130  19.7716280  43.7034110   4.0534460  23.9177480  34.2643520
   3.2796720  23.3775100  34.1042240   4.7829090  23.3984090  33.9261280
  14.8122440  22.9142840  40.0569910  15.5321560  23.4098130  39.6666020
  14.6104260  22.2360730  39.4123780  10.2732380  14.3080800  34.1999300
   9.4596990  13.8093970  34.1244610  10.0794330  15.1479050  33.7835650
  10.1941240  22.9851900  45.9438910  10.1278550  22.0647570  45.6896500
   9.5646380  23.0827340  46.6583550  12.9880770  18.6800450  32.4961460
  13.8760390  18.9917680  32.3212800  12.9585860  17.8072700  32.1042040
   4.0971860  23.5857860  37.9022330   4.6150530  22.7826120  37.8479220
   3.6455880  23.5237000  38.7439160   8.9841360  24.8524140  33.1749630
   9.3257060  25.5966370  32.6792950   8.1554070  25.1655260  33.5374460
   4.7829520  21.0103470  47.6987580   4.4829660  21.1560650  46.8015400
   5.5540760  20.4508760  47.6060970  10.1257970  25.8072470  45.6942710
  10.1402510  24.8753430  45.4761620   9.4183070  25.8932230  46.3332480
  15.2595040  19.9912290  31.9641320  15.1758760  20.4226510  31.1137760
  15.9789230  20.4510640  32.3968140  16.3369180  22.4479810  45.0411290
  15.6117370  23.0408590  44.8440680  16.8644640  22.4403350  44.2424660
  16.2882290  26.8454550  34.6923450  15.6458450  26.1910170  34.9667170
  15.9012950  27.2509640  33.9164120  11.8668770  24.1739980  38.5395140
  12.2192590  23.5768110  37.8796510  10.9831100  23.8484210  38.7103390
   7.9532050  24.9337670  35.9465550   8.6403180  25.4806880  36.3273140
   7.1664470  25.4778400  35.9815160   7.2559260  21.9383700  35.5590910
   7.7122040  22.7488950  35.7851100   6.9047470  21.6206840  36.3909400
   9.5591870  27.4490040  42.7883210  10.2034090  27.6549420  43.4656630
   9.9221310  26.6878440  42.3354060   3.1571040  12.2821350  36.0313430
   3.0285670  12.2739250  36.9798350   2.3333060  12.6204440  35.6804440
  10.8323950  25.4522390  41.5060660  11.4746180  24.7515550  41.6192830
  11.3573300  26.2320830  41.3257550  14.6779670  25.7371010  31.2299800
  14.4517250  25.0201450  31.8224440  14.2875870  25.4883450  30.3921550
  12.6061570  26.2517290  44.7096720  12.9417810  26.8383980  45.3874640
  11.6861910  26.1210000  44.9394510  14.2595920  23.6542950  32.8913960
  13.9717620  24.1155640  33.6791840  15.0548090  23.1940720  33.1598180
   8.4350150  26.3008620  47.8784780   8.1147020  25.5817860  48.4230470
   7.7608510  26.9763690  47.9520840   6.4764320  27.1469070  32.8217930
   6.4674420  27.8798760  32.2062440   5.5562680  26.9000650  32.9144890
  11.6503750  16.5334780  43.2421580  12.0184570  15.7129990  43.5701150
  10.7901950  16.5936670  43.6577230  15.0165780  15.4891720  34.0509140
  14.3878940  15.5937390  33.3367370  14.5217700  15.7088500  34.8403020
   9.4623920  27.2097310  31.4843120   9.5635900  27.0061300  30.5545100
   8.5625660  26.9555590  31.6890900   6.9849810  17.7677670  35.4667020
   6.2765960  18.2364010  35.9080630   7.2694290  17.1099680  36.1012210
   8.6105740  19.1874370  43.4659550   9.1090990  19.6620190  44.1311400
   8.7528690  18.2637890  43.6729580  11.0165240  14.4928330  36.9062810
  10.8933020  14.5114460  35.9572320  11.9649800  14.5407270  37.0261210
   8.1042030  29.7283630  36.1790790   8.3583530  29.6905020  35.2570160
   7.1554510  29.6016960  36.1719040   5.1884830  16.0762750  32.8417730
   6.0375360  16.5132900  32.7757920   4.8216100  16.3883010  33.6689790
  15.8172600  15.4042330  44.3087940  15.3146200  16.1447730  44.6481750
  16.6329260  15.7926330  43.9924730  14.1094610  20.6475510  37.7549300
  13.1684750  20.6625740  37.9296990  14.4238680  19.8611470  38.2009600
   4.0876250  22.3295110  31.3153260   4.8539520  22.2176470  31.8778690
   4.1650940  21.6333080  30.6630030   2.7823010  19.7620180  31.9986150
   2.8626600  18.8147690  32.1103550   3.6742760  20.0927060  32.1046810
  16.1120190  27.8184360  39.4303560  16.2367610  28.6415530  39.9027370
  16.9785750  27.6075090  39.0827710   3.5837720  29.9115570  39.1020690
   4.3200200  29.3631030  39.3729260   3.9678640  30.7771580  38.9626680
   2.5896000  29.0961640  48.2906270   3.3908730  29.4173690  48.7041670
   2.0747820  28.7357220  49.0126180   6.6940030  29.0845880  30.9246260
   7.4868640  29.3734710  30.4728050   6.1744380  28.6538050  30.2458740
  11.4260630  25.2041510  48.2381680  10.8198790  25.2273110  47.4977430
  11.1214740  24.4724550  48.7748930  12.8561000  28.9321800  46.8491090
  13.8082750  28.8479820  46.7991330  12.7089220  29.5963510  47.5224880
  15.7470200  28.3116010  32.3483000  15.4611710  27.8981150  31.5337180
  15.5489750  29.2403720  32.2283520   7.2117430  24.3049290  30.7888610
   7.1068070  23.6901640  31.5149990   7.0441650  23.7815180  30.0051620
   7.3631750  22.9906090  46.7677840   6.5977420  23.5591090  46.6832510
   7.5447710  22.6982300  45.8746070  10.4520160  23.3669320  31.3930600
   9.9030260  23.8138620  32.0373340  11.0739420  22.8618570  31.9168270
  14.5055100  24.7211420  47.3252860  15.2464570  25.0587180  46.8220320
  13.7427780  24.8903480  46.7722630   2.3416890  19.7264690  48.1292390
   2.3822230  19.4278560  49.0377620   3.1962390  20.1272300  47.9699910
   6.1195280  22.3260240  33.2895900   6.5411700  22.1600110  34.1327290
   6.2446120  21.5160470  32.7951040   4.2822700  18.3056790  46.0966880
   3.7519160  17.8147740  45.4690220   4.9510770  18.7340990  45.5624810
   8.6322920  21.3497850  30.5373000   9.1528580  20.6346870  30.1714150
   9.2791320  21.9883720  30.8373510  13.1800760  22.7726250  45.8608070
  13.5941780  22.9271330  46.7098490  12.2451760  22.8981470  46.0233850
  13.6522930  20.1122410  47.8647220  14.2343700  19.3574730  47.7767700
  13.8284700  20.6429850  47.0878700   4.7695000  15.2719160  46.1764170
   4.6751870  14.6539910  45.4515040   4.1892390  15.9985450  45.9494080
   7.5356440  13.8292400  43.2091560   7.0873740  13.8516660  42.3637110
   6.9021640  13.4311420  43.8061860   7.9415990  22.7246730  43.8304000
   8.3604100  23.5679460  43.6580240   7.0224620  22.8618770  43.6010780
  10.2779890  20.4562910  45.2141840  10.3976100  19.8604050  45.9536680
  11.1373890  20.4932600  44.7943140  12.6167790  21.0100100  43.7904350
  12.0903010  21.5342720  43.1869490  12.9599130  21.6427490  44.4214080
   5.0154180  18.3993470  30.2354060   4.8143240  17.5360830  30.5967400
   4.8446230  18.3126830  29.2975660   5.7923410  29.0299740  44.9461730
   5.2544500  29.7545800  44.6270430   6.0457370  28.5530080  44.1559070
   7.0448660  16.9984260  46.4717660   7.6348350  16.6900110  47.1595480
   6.2268900  16.5264010  46.6277560  11.8642090  16.6150070  46.7050680
  11.1757610  15.9531610  46.6400670  12.5848110  16.1688340  47.1499140
  12.4942490  13.2101700  32.7640940  12.7744780  12.3669600  33.1200360
  11.7208220  13.4424810  33.2779690   3.8136980  15.4994090  30.2231940
   4.1162880  15.5061520  29.3151090   4.5531570  15.1491950  30.7199600
   8.6485620  30.2650950  45.2048380   8.5744320  31.1686090  45.5120750
   7.7464460  29.9462850  45.1770450   7.0321910  14.4428710  31.2088140
   6.6843910  13.7652700  30.6290590   7.2334680  13.9818220  32.0231530
   9.1970950  29.4309460  32.8274740  10.0921740  29.7694430  32.8493500
   9.2288580  28.7088870  32.1999020   2.8367110  24.8036510  31.0561740
   3.2741980  25.3466180  31.7119320   3.3214840  23.9783460  31.0658080
   4.6474830  25.9234550  36.1683970   4.3470370  25.7999520  37.0687880
   4.5412320  25.0643140  35.7599700  16.1765300  27.9613130  45.5340940
  15.5767290  28.0205690  44.7904860  16.3059200  27.0218110  45.6637790
  17.4166750  25.7030950  30.8710650  16.5859710  25.7707600  31.3417880
  17.5938580  26.5935070  30.5677510  16.8723210  22.4478430  33.3744850
  17.6342120  23.0175080  33.4804540  16.8877580  21.8805630  34.1453160
  17.8783180  23.3028530  38.2186780  18.2492010  22.5195850  37.8122750
  18.5185110  23.9917630  38.0404080  14.8616940  24.6865110  43.6317100
  14.0476780  25.1162270  43.8942890  15.2691140  25.2983520  43.0186150
  16.9242380  22.7412800  30.5317370  17.1991220  23.6491680  30.4036590
  16.7353120  22.6775330  31.4679360  13.3217990  15.7657650  31.8271000
  13.7402870  15.5788630  30.9867660  13.0154050  14.9136700  32.1373930
  16.8207720  20.6781790  35.5246800  16.4451320  19.9109720  35.0928090
  16.0910840  21.0604490  36.0121730  16.2107340  19.8253310  45.1586320
  15.9793430  19.5966060  44.2584270  16.4711890  20.7452860  45.1131210
  14.6495410  15.0509740  47.9366020  15.5265590  15.0593140  48.3200020
  14.6616250  14.3140580  47.3258370  16.0958680  18.9039280  38.8254040
  16.6196160  18.4101930  38.1944210  16.6818100  19.0389640  39.5701610
  16.2748400  18.9879150  42.3473590  15.3251110  18.9542690  42.4618580
  16.4561410  19.8979260  42.1123360   1.7767000  13.2920160  30.4974870
   2.4995130  13.8329100  30.8156090   2.0491520  13.0183580  29.6216410
  15.5858650  18.1612630  34.7646450  16.0817770  17.9283500  35.5495330
  15.3874720  17.3224470  34.3484090  17.0145810  16.7973580  37.2984130
  16.9045090  16.6429620  38.2366400  17.7753400  16.2694520  37.0559540
  15.3611530  12.7367710  43.7567130  15.9983750  13.3501850  44.1226320
  15.5086420  12.7728370  42.8116360  17.9036080  14.6281500  30.5390270
  18.8285390  14.4962680  30.3308560  17.8811870  14.7074320  31.4926720
  17.9774570  15.3992160  33.1646980  17.1826070  15.3337280  33.6939890
  18.1817850  16.3342800  33.1532330  14.9192990  29.4383710  37.1585370
  15.5152060  29.1168280  36.4819790  15.1771140  28.9655530  37.9498640
   2.8255560  25.8701620  47.3076000   2.7825190  25.4994530  48.1890460
   2.9566570  26.8079190  47.4477820   6.5261590  27.4261210  42.9085720
   6.2852950  27.6935770  42.0216240   7.4664230  27.5966940  42.9636580
   8.7316010  13.8893900  46.6642230   8.6704900  14.4815730  47.4137640
   9.6716390  13.7819860  46.5192490  11.3690570  13.5463960  46.3034520
  11.9830980  13.8643250  45.6415600  11.9140130  13.0612550  46.9230380
  17.7865750  29.4455590  43.7096360  17.2924030  29.8424460  42.9923490
  17.1779040  28.8204800  44.1033640   1.8911830  12.2258220  46.4173580
   2.4394820  12.0446270  45.6539690   1.9567140  11.4352330  46.9529890
   2.6643590  28.8163870  44.4273780   2.0703910  28.6848570  45.1663820
   2.6567430  27.9802010  43.9615880  12.1098610  12.1096100  42.6303810
  11.2358450  12.4431210  42.4276740  12.0009360  11.6369280  43.4555680
  13.0170590  14.3166970  44.0145530  12.6883950  13.5018730  43.6347260
  13.9652890  14.2736780  43.8911220  15.4705200  30.0879010  40.9883100
  15.0108170  30.8394820  40.6141120  14.8417660  29.3685480  40.9297900
   5.9000920  28.3967250  40.1631230   6.4165940  27.7854610  39.6379490
   6.5498300  28.8996030  40.6542240   8.6396420  29.2875740  40.9900210
   8.9274230  29.0330040  40.1133220   9.1519640  28.7353100  41.5805780
   9.8573430  13.0265940  41.5696720   9.0745220  13.5011440  41.8493480
   9.5636360  12.1220770  41.4609900  14.4094500  13.7289040  39.6145810
  14.8502590  13.6734140  38.7667410  14.1402090  14.6447050  39.6855990
  16.2733070  13.3604280  37.6254630  16.2121470  12.4165500  37.4785650
  17.0525100  13.4684370  38.1708090   7.7427650  15.4452690  37.0812750
   6.9302160  15.0709580  36.7408630   8.2469290  14.6897770  37.3833940
  12.2452630  12.1095140  38.3195820  12.8482000  12.6815350  38.7944340
  11.5045620  12.6734580  38.0969720  15.3887230  12.5116700  33.5936100
  15.5837860  13.4100150  33.8603530  14.6017100  12.2803780  34.0869050
   2.1848520  28.1929870  34.0328720   1.6596140  28.5737900  33.3290680
   2.1093100  28.8180640  34.7538430   3.5738990  13.8577470  32.6312410
   4.1031750  13.0707270  32.5020360   4.2067310  14.5368660  32.8647940
   5.7676830  13.5952610  35.6857800   5.1379570  12.8939920  35.8527930
   5.2281970  14.3556740  35.4690960   8.7068780  30.2091840  48.3568410
   9.6336090  29.9736110  48.4004370   8.6919210  31.0363840  47.8754440
  16.9413840  29.7517410  35.3542660  17.1166030  29.0655150  34.7103580
  16.2435410  30.2764460  34.9619330   5.8932390  12.8736590  48.1210290
   5.6116660  13.3770190  47.3571110   6.2752090  12.0758340  47.7552420
   4.7841490  30.1412250  32.9077970   5.5160310  29.8571530  32.3601860
   5.0435160  29.9025530  33.7977350   3.9456280  26.2576980  32.9124300
   3.3165160  26.7262080  33.4610130   4.0604110  25.4126200  33.3470490
  12.4947850  12.2890170  48.6990760  12.3813300  12.6084780  49.5942280
  13.3117590  12.6902680  48.4028040  15.2746340  29.4361700  48.1809450
  16.0671660  28.9410930  47.9735410  15.5679490  30.1151840  48.7885060
  11.4006000  20.3082640  19.0625500  11.3200050  19.3937250  18.7917210
  10.9870420  20.8049710  18.3565210   9.5324040  22.0861660  20.9434770
   8.7566140  21.6062100  21.2333340  10.1836970  21.4067310  20.7690930
   3.5489870  22.3981470  21.8210530   2.7174750  22.1430180  22.2207040
   4.1570850  22.4692240  22.5568450  13.5531470  26.4921850  19.7233900
  13.0913000  25.7209090  20.0521070  14.3657020  26.5187920  20.2286350
   3.5291130  26.4321560  22.0168550   3.8319170  25.5419300  21.8378770
   4.2734720  26.9891780  21.7890800   9.7794780  28.7779860  19.3437890
   9.1606220  29.2337360  18.7732330  10.6346560  28.9331320  18.9427590
   8.9733030  24.7618850  20.9504930   8.9041310  23.8208790  20.7894060
   9.7352890  24.8520260  21.5227500  10.0038200  17.5689230  21.1773860
  10.3803020  16.6961110  21.0647530   9.9057710  17.9047930  20.2864300
   4.1343210  15.9414860  16.6391300   4.2409960  16.8418590  16.9460060
   3.2235570  15.8932830  16.3485950  13.7862320  15.0639670  18.1102200
  14.6071940  14.5736240  18.1527680  13.8196400  15.6537330  18.8634040
   5.9750940  18.9101230  20.9716480   6.4829160  19.4082200  21.6121500
   6.5064180  18.1336430  20.7955840  18.0761870  17.0806420  24.6745830
  17.3714040  17.4688130  24.1560940  18.3419790  17.7756710  25.2766760
   4.2587040  13.5499790  25.2379900   4.2605480  14.0672180  24.4325800
   3.4291350  13.0729970  25.2149830  10.6458130  23.6619100  16.7369800
  10.0275400  24.1268550  16.1732520  11.1581380  24.3546580  17.1539310
   5.5089890  23.1894970  23.4153400   5.1759270  23.8163890  24.0574470
   5.6856570  23.7156850  22.6355070  14.0223800  17.0040050  20.8829740
  13.3179370  17.2924940  21.4632850  14.3835960  17.8140160  20.5229300
   3.9402370  15.2609750  23.2450350   4.2819180  16.1051800  22.9504220
   3.0018180  15.4093490  23.3615690   4.7208990  25.1575770  25.2302580
   5.3382990  25.8326850  24.9487030   3.8602110  25.5663750  25.1390080
  15.6386580  26.6215180  23.1457220  14.9550100  27.2914290  23.1373890
  16.1780870  26.8195830  22.3802080  17.0910720  16.4494840  21.2738950
  16.1435630  16.4833820  21.4054380  17.4160710  17.2633790  21.6588310
   7.6230260  12.7492020  19.5694940   7.9305240  12.1938910  18.8530440
   6.6930960  12.8836480  19.3867930  13.1745320  28.4659310  21.8602400
  13.1872480  28.0621600  20.9924660  12.6220540  29.2406600  21.7563830
  14.4690740  25.1875530  16.9492570  14.3587070  24.2449860  17.0741990
  14.4658990  25.5491170  17.8355330  12.5730760  23.3689150  23.1885010
  12.9899550  23.1549260  22.3538470  13.2970580  23.6261940  23.7593630
  10.0111020  20.8140850  16.3055060   9.0840300  20.7478230  16.5343530
  10.1635840  21.7520980  16.1910300   9.9980100  17.0857850  13.3022220
   9.0583770  17.2471810  13.3874680  10.3163360  17.8043530  12.7558210
  16.5192860  21.7676370  23.2801250  15.6911490  21.8369460  22.8051380
  17.1143340  22.3530680  22.8117080  14.0408310  22.3761150  16.8090310
  13.4220730  22.0380700  16.1616610  14.0232760  21.7320910  17.5169500
  13.4834870  18.5545690  24.2256120  13.0706050  19.3799400  24.4796110
  12.7510820  17.9690730  24.0332480   5.6167660  21.3405590  19.0874790
   5.2124660  20.6282840  18.5920690   5.7030780  20.9958830  19.9762830
   6.0849360  25.0273150  21.2514000   5.7877650  24.4218620  20.5721780
   7.0349180  25.0650460  21.1403360   4.3296280  18.1148800  22.8673830
   4.8810870  18.2244140  22.0927080   4.8439790  18.4886400  23.5829060
  14.1734970  28.6005020  24.9137100  13.6965530  29.4077210  24.7209710
  13.4896760  27.9483350  25.0663310   5.1767790  24.7654840  27.9021800
   4.2796320  24.9894810  28.1495200   5.2020660  24.8889780  26.9533200
  12.2173010  21.6147960  13.8163060  12.6566290  20.7770390  13.6700880
  12.9301430  22.2477360  13.9027200   4.0039010  21.6368160  26.4779170
   3.8646780  22.5090960  26.8466570   3.1220370  21.2940970  26.3327110
  10.3268390  26.5544030  17.7844300  10.7664300  27.2968360  17.3699690
  10.2655280  26.7970600  18.7083260   5.8019360  27.5789860  28.6864320
   5.7734790  27.9832810  27.8192750   5.6384330  26.6500220  28.5235920
  15.7990150  12.8690770  12.1304100  15.4862810  12.9617600  13.0303170
  16.5602620  13.4471800  12.0801530   2.3172290  20.2350570  16.5881440
   2.1969890  20.9612660  15.9762710   2.0073180  19.4653480  16.1109350
  17.7534180  28.3616960  29.9828490  18.2293900  28.8399850  30.6617570
  18.3741340  28.2934450  29.2573990  17.1567430  25.5529810  27.1428500
  17.2830490  25.3141690  26.2245680  17.1988810  24.7214350  27.6150580
  11.0184170  29.2557810  25.7123310  11.5328840  29.1665820  26.5145740
  10.1753250  29.6017510  26.0051220  12.9938570  29.5413150  15.1407310
  12.8339710  29.2516090  16.0389140  12.8285280  28.7653280  14.6052540
   5.4726950  29.3211680  16.9178930   5.2969430  28.4047220  16.7046730
   4.6182690  29.6798970  17.1576730  12.6964700  27.0500710  13.7005310
  12.0029860  27.0478000  13.0407590  13.4387560  26.6260030  13.2699480
  12.2614630  28.6763420  17.7753800  12.7171580  27.8952800  18.0892420
  12.6007150  29.3870240  18.3194980  17.0091440  17.6062270  28.1078240
  16.3935710  18.1141940  27.5793700  16.6887860  16.7060600  28.0504180
   4.7835950  13.5785640  19.9705110   4.3404100  14.3595180  19.6389630
   5.3420940  13.9015530  20.6776050   9.0705760  16.4454160  25.5740430
   8.6085130  16.6537180  26.3860370   8.6683870  15.6313510  25.2711100
  14.0710270  17.6663110  26.7037090  13.2203860  17.3668860  27.0246160
  13.9112060  17.9105120  25.7920910  11.1659980  19.1664860  28.8035880
  11.4913390  18.3328610  28.4638110  11.9540310  19.6893380  28.9514210
   7.8994770  13.1996340  14.8510940   7.2748950  13.1956210  15.5764250
   7.8124890  12.3327300  14.4546910   6.8211850  14.1232970  21.8294710
   7.1184180  15.0295800  21.7486730   7.3697410  13.6351750  21.2154280
   4.5750170  18.7019210  17.6986360   4.3491090  18.4856380  18.6032980
   3.7942700  19.1347670  17.3532330  11.8047930  18.7082580  16.2977010
  11.2056820  19.4318380  16.1140630  12.3527540  18.6459360  15.5153460
   7.0149380  19.6004790  28.3646630   6.9192980  18.6599520  28.2147030
   7.8581360  19.8219860  27.9694700  10.4112800  17.3446120  18.3280290
  10.8042370  17.6618320  17.5148980  10.7729650  16.4658000  18.4424810
   8.7204970  16.0953430  29.5877150   8.0303290  15.9025630  30.2223240
   9.4637270  16.3788070  30.1201450  10.9967940  19.9351870  22.4231070
  10.2649060  20.4438680  22.7721170  10.5992280  19.1181850  22.1219850
   7.4345330  16.6106070  20.8283560   7.4381390  16.1696020  19.9788100
   8.3296450  16.9323400  20.9355380   3.2847710  16.4932560  19.7877770
   2.9447760  16.9707790  20.5444820   2.5225030  16.0397680  19.4278870
   7.4965480  17.6118150  13.8190320   7.6178300  17.5704630  14.7676140
   7.1113990  18.4742300  13.6637050  11.4593850  15.3885550  21.8354010
  11.4766590  15.8394200  22.6795860  11.2109430  14.4891190  22.0487450
   6.5086980  19.9219290  13.2173620   5.9403880  19.4737540  12.5909530
   7.2175980  20.2812070  12.6838770  14.8864600  12.8017730  27.6740390
  15.2110370  12.0707390  28.1998370  14.9221110  12.4831370  26.7721380
   7.7353300  20.6707850  22.5748970   8.1023430  20.1966420  23.3210310
   7.5458360  21.5449420  22.9157310   5.5252670  19.7116490  24.8933180
   5.2209740  20.5908470  25.1183540   6.4799130  19.7716280  24.9290620
   4.0534460  23.9177480  15.4900030   3.2796720  23.3775100  15.3298750
   4.7829090  23.3984090  15.1517790  14.8122440  22.9142840  21.2826420
  15.5321560  23.4098130  20.8922530  14.6104260  22.2360730  20.6380290
  10.2732380  14.3080800  15.4255810   9.4596990  13.8093970  15.3501120
  10.0794330  15.1479050  15.0092160  10.1941240  22.9851900  27.1695420
  10.1278550  22.0647570  26.9153010   9.5646380  23.0827340  27.8840060
  12.9880770  18.6800450  13.7217970  13.8760390  18.9917680  13.5469310
  12.9585860  17.8072700  13.3298550   4.0971860  23.5857860  19.1278840
   4.6150530  22.7826120  19.0735730   3.6455880  23.5237000  19.9695670
   8.9841360  24.8524140  14.4006140   9.3257060  25.5966370  13.9049460
   8.1554070  25.1655260  14.7630970   4.7829520  21.0103470  28.9244090
   4.4829660  21.1560650  28.0271910   5.5540760  20.4508760  28.8317480
  10.1257970  25.8072470  26.9199220  10.1402510  24.8753430  26.7018130
   9.4183070  25.8932230  27.5588990  15.2595040  19.9912290  13.1897830
  15.1758760  20.4226510  12.3394270  15.9789230  20.4510640  13.6224650
  16.3369180  22.4479810  26.2667800  15.6117370  23.0408590  26.0697190
  16.8644640  22.4403350  25.4681170  16.2882290  26.8454550  15.9179960
  15.6458450  26.1910170  16.1923680  15.9012950  27.2509640  15.1420630
  11.8668770  24.1739980  19.7651650  12.2192590  23.5768110  19.1053020
  10.9831100  23.8484210  19.9359900   7.9532050  24.9337670  17.1722060
   8.6403180  25.4806880  17.5529650   7.1664470  25.4778400  17.2071670
   7.2559260  21.9383700  16.7847420   7.7122040  22.7488950  17.0107610
   6.9047470  21.6206840  17.6165910   9.5591870  27.4490040  24.0139720
  10.2034090  27.6549420  24.6913140   9.9221310  26.6878440  23.5610570
   3.1571040  12.2821350  17.2569940   3.0285670  12.2739250  18.2054860
   2.3333060  12.6204440  16.9060950  10.8323950  25.4522390  22.7317170
  11.4746180  24.7515550  22.8449340  11.3573300  26.2320830  22.5514060
  14.6779670  25.7371010  12.4556310  14.4517250  25.0201450  13.0480950
  14.2875870  25.4883450  11.6178060  12.6061570  26.2517290  25.9353230
  12.9417810  26.8383980  26.6131150  11.6861910  26.1210000  26.1651020
  14.2595920  23.6542950  14.1170470  13.9717620  24.1155640  14.9048350
  15.0548090  23.1940720  14.3854690   8.4350150  26.3008620  29.1041290
   8.1147020  25.5817860  29.6486980   7.7608510  26.9763690  29.1777350
   6.4764320  27.1469070  14.0474440   6.4674420  27.8798760  13.4318950
   5.5562680  26.9000650  14.1401400  11.6503750  16.5334780  24.4678090
  12.0184570  15.7129990  24.7957660  10.7901950  16.5936670  24.8833740
  15.0165780  15.4891720  15.2765650  14.3878940  15.5937390  14.5623880
  14.5217700  15.7088500  16.0659530   9.4623920  27.2097310  12.7099630
   9.5635900  27.0061300  11.7801610   8.5625660  26.9555590  12.9147410
   6.9849810  17.7677670  16.6923530   6.2765960  18.2364010  17.1337140
   7.2694290  17.1099680  17.3268720   8.6105740  19.1874370  24.6916060
   9.1090990  19.6620190  25.3567910   8.7528690  18.2637890  24.8986090
  11.0165240  14.4928330  18.1319320  10.8933020  14.5114460  17.1828830
  11.9649800  14.5407270  18.2517720   8.1042030  29.7283630  17.4047300
   8.3583530  29.6905020  16.4826670   7.1554510  29.6016960  17.3975550
   5.1884830  16.0762750  14.0674240   6.0375360  16.5132900  14.0014430
   4.8216100  16.3883010  14.8946300  15.8172600  15.4042330  25.5344450
  15.3146200  16.1447730  25.8738260  16.6329260  15.7926330  25.2181240
  14.1094610  20.6475510  18.9805810  13.1684750  20.6625740  19.1553500
  14.4238680  19.8611470  19.4266110   4.0876250  22.3295110  12.5409770
   4.8539520  22.2176470  13.1035200   4.1650940  21.6333080  11.8886540
   2.7823010  19.7620180  13.2242660   2.8626600  18.8147690  13.3360060
   3.6742760  20.0927060  13.3303320  16.1120190  27.8184360  20.6560070
  16.2367610  28.6415530  21.1283880  16.9785750  27.6075090  20.3084220
   3.5837720  29.9115570  20.3277200   4.3200200  29.3631030  20.5985770
   3.9678640  30.7771580  20.1883190   2.5896000  29.0961640  29.5162780
   3.3908730  29.4173690  29.9298180   2.0747820  28.7357220  30.2382690
   6.6940030  29.0845880  12.1502770   7.4868640  29.3734710  11.6984560
   6.1744380  28.6538050  11.4715250  11.4260630  25.2041510  29.4638190
  10.8198790  25.2273110  28.7233940  11.1214740  24.4724550  30.0005440
  12.8561000  28.9321800  28.0747600  13.8082750  28.8479820  28.0247840
  12.7089220  29.5963510  28.7481390  15.7470200  28.3116010  13.5739510
  15.4611710  27.8981150  12.7593690  15.5489750  29.2403720  13.4540030
   7.2117430  24.3049290  12.0145120   7.1068070  23.6901640  12.7406500
   7.0441650  23.7815180  11.2308130   7.3631750  22.9906090  27.9934350
   6.5977420  23.5591090  27.9089020   7.5447710  22.6982300  27.1002580
  10.4520160  23.3669320  12.6187110   9.9030260  23.8138620  13.2629850
  11.0739420  22.8618570  13.1424780  14.5055100  24.7211420  28.5509370
  15.2464570  25.0587180  28.0476830  13.7427780  24.8903480  27.9979140
   2.3416890  19.7264690  29.3548900   2.3822230  19.4278560  30.2634130
   3.1962390  20.1272300  29.1956420   6.1195280  22.3260240  14.5152410
   6.5411700  22.1600110  15.3583800   6.2446120  21.5160470  14.0207550
   4.2822700  18.3056790  27.3223390   3.7519160  17.8147740  26.6946730
   4.9510770  18.7340990  26.7881320   8.6322920  21.3497850  11.7629510
   9.1528580  20.6346870  11.3970660   9.2791320  21.9883720  12.0630020
  13.1800760  22.7726250  27.0864580  13.5941780  22.9271330  27.9355000
  12.2451760  22.8981470  27.2490360  13.6522930  20.1122410  29.0903730
  14.2343700  19.3574730  29.0024210  13.8284700  20.6429850  28.3135210
   4.7695000  15.2719160  27.4020680   4.6751870  14.6539910  26.6771550
   4.1892390  15.9985450  27.1750590   7.5356440  13.8292400  24.4348070
   7.0873740  13.8516660  23.5893620   6.9021640  13.4311420  25.0318370
   7.9415990  22.7246730  25.0560510   8.3604100  23.5679460  24.8836750
   7.0224620  22.8618770  24.8267290  10.2779890  20.4562910  26.4398350
  10.3976100  19.8604050  27.1793190  11.1373890  20.4932600  26.0199650
  12.6167790  21.0100100  25.0160860  12.0903010  21.5342720  24.4126000
  12.9599130  21.6427490  25.6470590   5.0154180  18.3993470  11.4610570
   4.8143240  17.5360830  11.8223910   4.8446230  18.3126830  10.5232170
   5.7923410  29.0299740  26.1718240   5.2544500  29.7545800  25.8526940
   6.0457370  28.5530080  25.3815580   7.0448660  16.9984260  27.6974170
   7.6348350  16.6900110  28.3851990   6.2268900  16.5264010  27.8534070
  11.8642090  16.6150070  27.9307190  11.1757610  15.9531610  27.8657180
  12.5848110  16.1688340  28.3755650  12.4942490  13.2101700  13.9897450
  12.7744780  12.3669600  14.3456870  11.7208220  13.4424810  14.5036200
   3.8136980  15.4994090  11.4488450   4.1162880  15.5061520  10.5407600
   4.5531570  15.1491950  11.9456110   8.6485620  30.2650950  26.4304890
   8.5744320  31.1686090  26.7377260   7.7464460  29.9462850  26.4026960
   7.0321910  14.4428710  12.4344650   6.6843910  13.7652700  11.8547100
   7.2334680  13.9818220  13.2488040   9.1970950  29.4309460  14.0531250
  10.0921740  29.7694430  14.0750010   9.2288580  28.7088870  13.4255530
   2.8367110  24.8036510  12.2818250   3.2741980  25.3466180  12.9375830
   3.3214840  23.9783460  12.2914590   4.6474830  25.9234550  17.3940480
   4.3470370  25.7999520  18.2944390   4.5412320  25.0643140  16.9856210
  16.1765300  27.9613130  26.7597450  15.5767290  28.0205690  26.0161370
  16.3059200  27.0218110  26.8894300  17.4166750  25.7030950  12.0967160
  16.5859710  25.7707600  12.5674390  17.5938580  26.5935070  11.7934020
  16.8723210  22.4478430  14.6001360  17.6342120  23.0175080  14.7061050
  16.8877580  21.8805630  15.3709670  17.8783180  23.3028530  19.4443290
  18.2492010  22.5195850  19.0379260  18.5185110  23.9917630  19.2660590
  14.8616940  24.6865110  24.8573610  14.0476780  25.1162270  25.1199400
  15.2691140  25.2983520  24.2442660  16.9242380  22.7412800  11.7573880
  17.1991220  23.6491680  11.6293100  16.7353120  22.6775330  12.6935870
  13.3217990  15.7657650  13.0527510  13.7402870  15.5788630  12.2124170
  13.0154050  14.9136700  13.3630440  16.8207720  20.6781790  16.7503310
  16.4451320  19.9109720  16.3184600  16.0910840  21.0604490  17.2378240
  16.2107340  19.8253310  26.3842830  15.9793430  19.5966060  25.4840780
  16.4711890  20.7452860  26.3387720  14.6495410  15.0509740  29.1622530
  15.5265590  15.0593140  29.5456530  14.6616250  14.3140580  28.5514880
  16.0958680  18.9039280  20.0510550  16.6196160  18.4101930  19.4200720
  16.6818100  19.0389640  20.7958120  16.2748400  18.9879150  23.5730100
  15.3251110  18.9542690  23.6875090  16.4561410  19.8979260  23.3379870
   1.7767000  13.2920160  11.7231380   2.4995130  13.8329100  12.0412600
   2.0491520  13.0183580  10.8472920  15.5858650  18.1612630  15.9902960
  16.0817770  17.9283500  16.7751840  15.3874720  17.3224470  15.5740600
  17.0145810  16.7973580  18.5240640  16.9045090  16.6429620  19.4622910
  17.7753400  16.2694520  18.2816050  15.3611530  12.7367710  24.9823640
  15.9983750  13.3501850  25.3482830  15.5086420  12.7728370  24.0372870
  17.9036080  14.6281500  11.7646780  18.8285390  14.4962680  11.5565070
  17.8811870  14.7074320  12.7183230  17.9774570  15.3992160  14.3903490
  17.1826070  15.3337280  14.9196400  18.1817850  16.3342800  14.3788840
  14.9192990  29.4383710  18.3841880  15.5152060  29.1168280  17.7076300
  15.1771140  28.9655530  19.1755150   2.8255560  25.8701620  28.5332510
   2.7825190  25.4994530  29.4146970   2.9566570  26.8079190  28.6734330
   6.5261590  27.4261210  24.1342230   6.2852950  27.6935770  23.2472750
   7.4664230  27.5966940  24.1893090   8.7316010  13.8893900  27.8898740
   8.6704900  14.4815730  28.6394150   9.6716390  13.7819860  27.7449000
  11.3690570  13.5463960  27.5291030  11.9830980  13.8643250  26.8672110
  11.9140130  13.0612550  28.1486890  17.7865750  29.4455590  24.9352870
  17.2924030  29.8424460  24.2180000  17.1779040  28.8204800  25.3290150
   1.8911830  12.2258220  27.6430090   2.4394820  12.0446270  26.8796200
   1.9567140  11.4352330  28.1786400   2.6643590  28.8163870  25.6530290
   2.0703910  28.6848570  26.3920330   2.6567430  27.9802010  25.1872390
  12.1098610  12.1096100  23.8560320  11.2358450  12.4431210  23.6533250
  12.0009360  11.6369280  24.6812190  13.0170590  14.3166970  25.2402040
  12.6883950  13.5018730  24.8603770  13.9652890  14.2736780  25.1167730
  15.4705200  30.0879010  22.2139610  15.0108170  30.8394820  21.8397630
  14.8417660  29.3685480  22.1554410   5.9000920  28.3967250  21.3887740
   6.4165940  27.7854610  20.8636000   6.5498300  28.8996030  21.8798750
   8.6396420  29.2875740  22.2156720   8.9274230  29.0330040  21.3389730
   9.1519640  28.7353100  22.8062290   9.8573430  13.0265940  22.7953230
   9.0745220  13.5011440  23.0749990   9.5636360  12.1220770  22.6866410
  14.4094500  13.7289040  20.8402320  14.8502590  13.6734140  19.9923920
  14.1402090  14.6447050  20.9112500  16.2733070  13.3604280  18.8511140
  16.2121470  12.4165500  18.7042160  17.0525100  13.4684370  19.3964600
   7.7427650  15.4452690  18.3069260   6.9302160  15.0709580  17.9665140
   8.2469290  14.6897770  18.6090450  12.2452630  12.1095140  19.5452330
  12.8482000  12.6815350  20.0200850  11.5045620  12.6734580  19.3226230
  15.3887230  12.5116700  14.8192610  15.5837860  13.4100150  15.0860040
  14.6017100  12.2803780  15.3125560   2.1848520  28.1929870  15.2585230
   1.6596140  28.5737900  14.5547190   2.1093100  28.8180640  15.9794940
   3.5738990  13.8577470  13.8568920   4.1031750  13.0707270  13.7276870
   4.2067310  14.5368660  14.0904450   5.7676830  13.5952610  16.9114310
   5.1379570  12.8939920  17.0784440   5.2281970  14.3556740  16.6947470
   8.7068780  30.2091840  29.5824920   9.6336090  29.9736110  29.6260880
   8.6919210  31.0363840  29.1010950  16.9413840  29.7517410  16.5799170
  17.1166030  29.0655150  15.9360090  16.2435410  30.2764460  16.1875840
   5.8932390  12.8736590  29.3466800   5.6116660  13.3770190  28.5827620
   6.2752090  12.0758340  28.9808930   4.7841490  30.1412250  14.1334480
   5.5160310  29.8571530  13.5858370   5.0435160  29.9025530  15.0233860
   3.9456280  26.2576980  14.1380810   3.3165160  26.7262080  14.6866640
   4.0604110  25.4126200  14.5727000  12.4947850  12.2890170  29.9247270
  12.3813300  12.6084780  30.8198790  13.3117590  12.6902680  29.6284550
  15.2746340  29.4361700  29.4065960  16.0671660  28.9410930  29.1991920
  15.5679490  30.1151840  30.0141570   9.5324040  22.0861660   2.1691280
   8.7566140  21.6062100   2.4589850  10.1836970  21.4067310   1.9947440
   3.5489870  22.3981470   3.0467040   2.7174750  22.1430180   3.4463550
   4.1570850  22.4692240   3.7824960   3.5291130  26.4321560   3.2425060
   3.8319170  25.5419300   3.0635280   4.2734720  26.9891780   3.0147310
   8.9733030  24.7618850   2.1761440   8.9041310  23.8208790   2.0150570
   9.7352890  24.8520260   2.7484010   5.9750940  18.9101230   2.1972990
   6.4829160  19.4082200   2.8378010   6.5064180  18.1336430   2.0212350
  18.0761870  17.0806420   5.9002340  17.3714040  17.4688130   5.3817450
  18.3419790  17.7756710   6.5023270   4.2587040  13.5499790   6.4636410
   4.2605480  14.0672180   5.6582310   3.4291350  13.0729970   6.4406340
   5.5089890  23.1894970   4.6409910   5.1759270  23.8163890   5.2830980
   5.6856570  23.7156850   3.8611580  14.0223800  17.0040050   2.1086250
  13.3179370  17.2924940   2.6889360  14.3835960  17.8140160   1.7485810
   3.9402370  15.2609750   4.4706860   4.2819180  16.1051800   4.1760730
   3.0018180  15.4093490   4.5872200   4.7208990  25.1575770   6.4559090
   5.3382990  25.8326850   6.1743540   3.8602110  25.5663750   6.3646590
  15.6386580  26.6215180   4.3713730  14.9550100  27.2914290   4.3630400
  16.1780870  26.8195830   3.6058590  17.0910720  16.4494840   2.4995460
  16.1435630  16.4833820   2.6310890  17.4160710  17.2633790   2.8844820
  13.1745320  28.4659310   3.0858910  13.1872480  28.0621600   2.2181170
  12.6220540  29.2406600   2.9820340  12.5730760  23.3689150   4.4141520
  12.9899550  23.1549260   3.5794980  13.2970580  23.6261940   4.9850140
  16.5192860  21.7676370   4.5057760  15.6911490  21.8369460   4.0307890
  17.1143340  22.3530680   4.0373590  13.4834870  18.5545690   5.4512630
  13.0706050  19.3799400   5.7052620  12.7510820  17.9690730   5.2588990
   6.0849360  25.0273150   2.4770510   5.7877650  24.4218620   1.7978290
   7.0349180  25.0650460   2.3659870   4.3296280  18.1148800   4.0930340
   4.8810870  18.2244140   3.3183590   4.8439790  18.4886400   4.8085570
  14.1734970  28.6005020   6.1393610  13.6965530  29.4077210   5.9466220
  13.4896760  27.9483350   6.2919820   5.1767790  24.7654840   9.1278310
   4.2796320  24.9894810   9.3751710   5.2020660  24.8889780   8.1789710
   4.0039010  21.6368160   7.7035680   3.8646780  22.5090960   8.0723080
   3.1220370  21.2940970   7.5583620   5.8019360  27.5789860   9.9120830
   5.7734790  27.9832810   9.0449260   5.6384330  26.6500220   9.7492430
  17.7534180  28.3616960  11.2085000  18.2293900  28.8399850  11.8874080
  18.3741340  28.2934450  10.4830500  17.1567430  25.5529810   8.3685010
  17.2830490  25.3141690   7.4502190  17.1988810  24.7214350   8.8407090
  11.0184170  29.2557810   6.9379820  11.5328840  29.1665820   7.7402250
  10.1753250  29.6017510   7.2307730  17.0091440  17.6062270   9.3334750
  16.3935710  18.1141940   8.8050210  16.6887860  16.7060600   9.2760690
   9.0705760  16.4454160   6.7996940   8.6085130  16.6537180   7.6116880
   8.6683870  15.6313510   6.4967610  14.0710270  17.6663110   7.9293600
  13.2203860  17.3668860   8.2502670  13.9112060  17.9105120   7.0177420
  11.1659980  19.1664860  10.0292390  11.4913390  18.3328610   9.6894620
  11.9540310  19.6893380  10.1770720   6.8211850  14.1232970   3.0551220
   7.1184180  15.0295800   2.9743240   7.3697410  13.6351750   2.4410790
   7.0149380  19.6004790   9.5903140   6.9192980  18.6599520   9.4403540
   7.8581360  19.8219860   9.1951210   8.7204970  16.0953430  10.8133660
   8.0303290  15.9025630  11.4479750   9.4637270  16.3788070  11.3457960
  10.9967940  19.9351870   3.6487580  10.2649060  20.4438680   3.9977680
  10.5992280  19.1181850   3.3476360  11.4593850  15.3885550   3.0610520
  11.4766590  15.8394200   3.9052370  11.2109430  14.4891190   3.2743960
  14.8864600  12.8017730   8.8996900  15.2110370  12.0707390   9.4254880
  14.9221110  12.4831370   7.9977890   7.7353300  20.6707850   3.8005480
   8.1023430  20.1966420   4.5466820   7.5458360  21.5449420   4.1413820
   5.5252670  19.7116490   6.1189690   5.2209740  20.5908470   6.3440050
   6.4799130  19.7716280   6.1547130  14.8122440  22.9142840   2.5082930
  15.5321560  23.4098130   2.1179040  14.6104260  22.2360730   1.8636800
  10.1941240  22.9851900   8.3951930  10.1278550  22.0647570   8.1409520
   9.5646380  23.0827340   9.1096570   4.7829520  21.0103470  10.1500600
   4.4829660  21.1560650   9.2528420   5.5540760  20.4508760  10.0573990
  10.1257970  25.8072470   8.1455730  10.1402510  24.8753430   7.9274640
   9.4183070  25.8932230   8.7845500  16.3369180  22.4479810   7.4924310
  15.6117370  23.0408590   7.2953700  16.8644640  22.4403350   6.6937680
   9.5591870  27.4490040   5.2396230  10.2034090  27.6549420   5.9169650
   9.9221310  26.6878440   4.7867080  10.8323950  25.4522390   3.9573680
  11.4746180  24.7515550   4.0705850  11.3573300  26.2320830   3.7770570
  12.6061570  26.2517290   7.1609740  12.9417810  26.8383980   7.8387660
  11.6861910  26.1210000   7.3907530   8.4350150  26.3008620  10.3297800
   8.1147020  25.5817860  10.8743490   7.7608510  26.9763690  10.4033860
  11.6503750  16.5334780   5.6934600  12.0184570  15.7129990   6.0214170
  10.7901950  16.5936670   6.1090250   8.6105740  19.1874370   5.9172570
   9.1090990  19.6620190   6.5824420   8.7528690  18.2637890   6.1242600
  15.8172600  15.4042330   6.7600960  15.3146200  16.1447730   7.0994770
  16.6329260  15.7926330   6.4437750   2.5896000  29.0961640  10.7419290
   3.3908730  29.4173690  11.1554690   2.0747820  28.7357220  11.4639200
  11.4260630  25.2041510  10.6894700  10.8198790  25.2273110   9.9490450
  11.1214740  24.4724550  11.2261950  12.8561000  28.9321800   9.3004110
  13.8082750  28.8479820   9.2504350  12.7089220  29.5963510   9.9737900
   7.3631750  22.9906090   9.2190860   6.5977420  23.5591090   9.1345530
   7.5447710  22.6982300   8.3259090  14.5055100  24.7211420   9.7765880
  15.2464570  25.0587180   9.2733340  13.7427780  24.8903480   9.2235650
   2.3416890  19.7264690  10.5805410   2.3822230  19.4278560  11.4890640
   3.1962390  20.1272300  10.4212930   4.2822700  18.3056790   8.5479900
   3.7519160  17.8147740   7.9203240   4.9510770  18.7340990   8.0137830
  13.1800760  22.7726250   8.3121090  13.5941780  22.9271330   9.1611510
  12.2451760  22.8981470   8.4746870  13.6522930  20.1122410  10.3160240
  14.2343700  19.3574730  10.2280720  13.8284700  20.6429850   9.5391720
   4.7695000  15.2719160   8.6277190   4.6751870  14.6539910   7.9028060
   4.1892390  15.9985450   8.4007100   7.5356440  13.8292400   5.6604580
   7.0873740  13.8516660   4.8150130   6.9021640  13.4311420   6.2574880
   7.9415990  22.7246730   6.2817020   8.3604100  23.5679460   6.1093260
   7.0224620  22.8618770   6.0523800  10.2779890  20.4562910   7.6654860
  10.3976100  19.8604050   8.4049700  11.1373890  20.4932600   7.2456160
  12.6167790  21.0100100   6.2417370  12.0903010  21.5342720   5.6382510
  12.9599130  21.6427490   6.8727100   5.7923410  29.0299740   7.3974750
   5.2544500  29.7545800   7.0783450   6.0457370  28.5530080   6.6072090
   7.0448660  16.9984260   8.9230680   7.6348350  16.6900110   9.6108500
   6.2268900  16.5264010   9.0790580  11.8642090  16.6150070   9.1563700
  11.1757610  15.9531610   9.0913690  12.5848110  16.1688340   9.6012160
   8.6485620  30.2650950   7.6561400   8.5744320  31.1686090   7.9633770
   7.7464460  29.9462850   7.6283470  16.1765300  27.9613130   7.9853960
  15.5767290  28.0205690   7.2417880  16.3059200  27.0218110   8.1150810
  14.8616940  24.6865110   6.0830120  14.0476780  25.1162270   6.3455910
  15.2691140  25.2983520   5.4699170  16.2107340  19.8253310   7.6099340
  15.9793430  19.5966060   6.7097290  16.4711890  20.7452860   7.5644230
  14.6495410  15.0509740  10.3879040  15.5265590  15.0593140  10.7713040
  14.6616250  14.3140580   9.7771390  16.2748400  18.9879150   4.7986610
  15.3251110  18.9542690   4.9131600  16.4561410  19.8979260   4.5636380
  15.3611530  12.7367710   6.2080150  15.9983750  13.3501850   6.5739340
  15.5086420  12.7728370   5.2629380   2.8255560  25.8701620   9.7589020
   2.7825190  25.4994530  10.6403480   2.9566570  26.8079190   9.8990840
   6.5261590  27.4261210   5.3598740   6.2852950  27.6935770   4.4729260
   7.4664230  27.5966940   5.4149600   8.7316010  13.8893900   9.1155250
   8.6704900  14.4815730   9.8650660   9.6716390  13.7819860   8.9705510
  11.3690570  13.5463960   8.7547540  11.9830980  13.8643250   8.0928620
  11.9140130  13.0612550   9.3743400  17.7865750  29.4455590   6.1609380
  17.2924030  29.8424460   5.4436510  17.1779040  28.8204800   6.5546660
   1.8911830  12.2258220   8.8686600   2.4394820  12.0446270   8.1052710
   1.9567140  11.4352330   9.4042910   2.6643590  28.8163870   6.8786800
   2.0703910  28.6848570   7.6176840   2.6567430  27.9802010   6.4128900
  12.1098610  12.1096100   5.0816830  11.2358450  12.4431210   4.8789760
  12.0009360  11.6369280   5.9068700  13.0170590  14.3166970   6.4658550
  12.6883950  13.5018730   6.0860280  13.9652890  14.2736780   6.3424240
  15.4705200  30.0879010   3.4396120  15.0108170  30.8394820   3.0654140
  14.8417660  29.3685480   3.3810920   5.9000920  28.3967250   2.6144250
   6.4165940  27.7854610   2.0892510   6.5498300  28.8996030   3.1055260
   8.6396420  29.2875740   3.4413230   8.9274230  29.0330040   2.5646240
   9.1519640  28.7353100   4.0318800   9.8573430  13.0265940   4.0209740
   9.0745220  13.5011440   4.3006500   9.5636360  12.1220770   3.9122920
   8.7068780  30.2091840  10.8081430   9.6336090  29.9736110  10.8517390
   8.6919210  31.0363840  10.3267460   5.8932390  12.8736590  10.5723310
   5.6116660  13.3770190   9.8084130   6.2752090  12.0758340  10.2065440
  12.4947850  12.2890170  11.1503780  12.3813300  12.6084780  12.0455300
  13.3117590  12.6902680  10.8541060  15.2746340  29.4361700  10.6322470
  16.0671660  28.9410930  10.4248430  15.5679490  30.1151840  11.2398080
  13.5531470   7.7178360  94.8207860  13.0913000   6.9465600  95.1495030
  14.3657020   7.7444430  95.3260310   9.7794780  10.0036370  94.4411850
   9.1606220  10.4593870  93.8706290  10.6346560  10.1587830  94.0401550
  10.6458130   4.8875610  91.8343760  10.0275400   5.3525060  91.2706480
  11.1581380   5.5803090  92.2513270  14.4690740   6.4132040  92.0466530
  14.3587070   5.4706370  92.1715950  14.4658990   6.7747680  92.9329290
  10.0111020   2.0397360  91.4029020   9.0840300   1.9734740  91.6317490
  10.1635840   2.9777490  91.2884260  14.0408310   3.6017660  91.9064270
  13.4220730   3.2637210  91.2590570  14.0232760   2.9577420  92.6143460
   5.6167660   2.5662100  94.1848750   5.2124660   1.8539350  93.6894650
   5.7030780   2.2215340  95.0736790  12.2173010   2.8404470  88.9137020
  12.6566290   2.0026900  88.7674840  12.9301430   3.4733870  89.0001160
  10.3268390   7.7800540  92.8818260  10.7664300   8.5224870  92.4673650
  10.2655280   8.0227110  93.8057220  12.9938570  10.7669660  90.2381270
  12.8339710  10.4772600  91.1363100  12.8285280   9.9909790  89.7026500
   5.4726950  10.5468190  92.0152890   5.2969430   9.6303730  91.8020690
   4.6182690  10.9055480  92.2550690  12.6964700   8.2757220  88.7979270
  12.0029860   8.2734510  88.1381550  13.4387560   7.8516540  88.3673440
  12.2614630   9.9019930  92.8727760  12.7171580   9.1209310  93.1866380
  12.6007150  10.6126750  93.4168940   4.0534460   5.1433990  90.5873990
   3.2796720   4.6031610  90.4272710   4.7829090   4.6240600  90.2491750
   4.0971860   4.8114370  94.2252800   4.6150530   4.0082630  94.1709690
   3.6455880   4.7493510  95.0669630   8.9841360   6.0780650  89.4980100
   9.3257060   6.8222880  89.0023420   8.1554070   6.3911770  89.8604930
  16.2882290   8.0711060  91.0153920  15.6458450   7.4166680  91.2897640
  15.9012950   8.4766150  90.2394590  11.8668770   5.3996490  94.8625610
  12.2192590   4.8024620  94.2026980  10.9831100   5.0740720  95.0333860
   7.9532050   6.1594180  92.2696020   8.6403180   6.7063390  92.6503610
   7.1664470   6.7034910  92.3045630   7.2559260   3.1640210  91.8821380
   7.7122040   3.9745460  92.1081570   6.9047470   2.8463350  92.7139870
  14.6779670   6.9627520  87.5530270  14.4517250   6.2457960  88.1454910
  14.2875870   6.7139960  86.7152020  14.2595920   4.8799460  89.2144430
  13.9717620   5.3412150  90.0022310  15.0548090   4.4197230  89.4828650
   6.4764320   8.3725580  89.1448400   6.4674420   9.1055270  88.5292910
   5.5562680   8.1257160  89.2375360   9.4623920   8.4353820  87.8073590
   9.5635900   8.2317810  86.8775570   8.5625660   8.1812100  88.0121370
   8.1042030  10.9540140  92.5021260   8.3583530  10.9161530  91.5800630
   7.1554510  10.8273470  92.4949510   4.0876250   3.5551620  87.6383730
   4.8539520   3.4432980  88.2009160   4.1650940   2.8589590  86.9860500
   3.5837720  11.1372080  95.4251160   4.3200200  10.5887540  95.6959730
   3.9678640  12.0028090  95.2857150   6.6940030  10.3102390  87.2476730
   7.4868640  10.5991220  86.7958520   6.1744380   9.8794560  86.5689210
  15.7470200   9.5372520  88.6713470  15.4611710   9.1237660  87.8567650
  15.5489750  10.4660230  88.5513990   7.2117430   5.5305800  87.1119080
   7.1068070   4.9158150  87.8380460   7.0441650   5.0071690  86.3282090
  10.4520160   4.5925830  87.7161070   9.9030260   5.0395130  88.3603810
  11.0739420   4.0875080  88.2398740   6.1195280   3.5516750  89.6126370
   6.5411700   3.3856620  90.4557760   6.2446120   2.7416980  89.1181510
   8.6322920   2.5754360  86.8603470   9.1528580   1.8603380  86.4944620
   9.2791320   3.2140230  87.1603980   9.1970950  10.6565970  89.1505210
  10.0921740  10.9950940  89.1723970   9.2288580   9.9345380  88.5229490
   2.8367110   6.0293020  87.3792210   3.2741980   6.5722690  88.0349790
   3.3214840   5.2039970  87.3888550   4.6474830   7.1491060  92.4914440
   4.3470370   7.0256030  93.3918350   4.5412320   6.2899650  92.0830170
  17.4166750   6.9287460  87.1941120  16.5859710   6.9964110  87.6648350
  17.5938580   7.8191580  86.8907980  16.8723210   3.6734940  89.6975320
  17.6342120   4.2431590  89.8035010  16.8877580   3.1062140  90.4683630
  17.8783180   4.5285040  94.5417250  18.2492010   3.7452360  94.1353220
  18.5185110   5.2174140  94.3634550  16.9242380   3.9669310  86.8547840
  17.1991220   4.8748190  86.7267060  16.7353120   3.9031840  87.7909830
  14.9192990  10.6640220  93.4815840  15.5152060  10.3424790  92.8050260
  15.1771140  10.1912040  94.2729110   2.1848520   9.4186380  90.3559190
   1.6596140   9.7994410  89.6521150   2.1093100  10.0437150  91.0768900
  16.9413840  10.9773920  91.6773130  17.1166030  10.2911660  91.0334050
  16.2435410  11.5020970  91.2849800   4.7841490  11.3668760  89.2308440
   5.5160310  11.0828040  88.6832330   5.0435160  11.1282040  90.1207820
   3.9456280   7.4833490  89.2354770   3.3165160   7.9518590  89.7840600
   4.0604110   6.6382710  89.6700960   9.5324040   3.3118170  77.2665240
   8.7566140   2.8318610  77.5563810  10.1836970   2.6323820  77.0921400
   3.5489870   3.6237980  78.1441000   2.7174750   3.3686690  78.5437510
   4.1570850   3.6948750  78.8798920  13.5531470   7.7178360  76.0464370
  13.0913000   6.9465600  76.3751540  14.3657020   7.7444430  76.5516820
   3.5291130   7.6578070  78.3399020   3.8319170   6.7675810  78.1609240
   4.2734720   8.2148290  78.1121270   9.7794780  10.0036370  75.6668360
   9.1606220  10.4593870  75.0962800  10.6346560  10.1587830  75.2658060
   8.9733030   5.9875360  77.2735400   8.9041310   5.0465300  77.1124530
   9.7352890   6.0776770  77.8457970  10.6458130   4.8875610  73.0600270
  10.0275400   5.3525060  72.4962990  11.1581380   5.5803090  73.4769780
   5.5089890   4.4151480  79.7383870   5.1759270   5.0420400  80.3804940
   5.6856570   4.9413360  78.9585540   4.7208990   6.3832280  81.5533050
   5.3382990   7.0583360  81.2717500   3.8602110   6.7920260  81.4620550
  15.6386580   7.8471690  79.4687690  14.9550100   8.5170800  79.4604360
  16.1780870   8.0452340  78.7032550  13.1745320   9.6915820  78.1832870
  13.1872480   9.2878110  77.3155130  12.6220540  10.4663110  78.0794300
  14.4690740   6.4132040  73.2723040  14.3587070   5.4706370  73.3972460
  14.4658990   6.7747680  74.1585800  12.5730760   4.5945660  79.5115480
  12.9899550   4.3805770  78.6768940  13.2970580   4.8518450  80.0824100
  10.0111020   2.0397360  72.6285530   9.0840300   1.9734740  72.8574000
  10.1635840   2.9777490  72.5140770  16.5192860   2.9932880  79.6031720
  15.6911490   3.0625970  79.1281850  17.1143340   3.5787190  79.1347550
  14.0408310   3.6017660  73.1320780  13.4220730   3.2637210  72.4847080
  14.0232760   2.9577420  73.8399970   5.6167660   2.5662100  75.4105260
   5.2124660   1.8539350  74.9151160   5.7030780   2.2215340  76.2993300
   6.0849360   6.2529660  77.5744470   5.7877650   5.6475130  76.8952250
   7.0349180   6.2906970  77.4633830  14.1734970   9.8261530  81.2367570
  13.6965530  10.6333720  81.0440180  13.4896760   9.1739860  81.3893780
   5.1767790   5.9911350  84.2252270   4.2796320   6.2151320  84.4725670
   5.2020660   6.1146290  83.2763670  12.2173010   2.8404470  70.1393530
  12.6566290   2.0026900  69.9931350  12.9301430   3.4733870  70.2257670
   4.0039010   2.8624670  82.8009640   3.8646780   3.7347470  83.1697040
   3.1220370   2.5197480  82.6557580  10.3268390   7.7800540  74.1074770
  10.7664300   8.5224870  73.6930160  10.2655280   8.0227110  75.0313730
   5.8019360   8.8046370  85.0094790   5.7734790   9.2089320  84.1423220
   5.6384330   7.8756730  84.8466390  17.7534180   9.5873470  86.3058960
  18.2293900  10.0656360  86.9848040  18.3741340   9.5190960  85.5804460
  17.1567430   6.7786320  83.4658970  17.2830490   6.5398200  82.5476150
  17.1988810   5.9470860  83.9381050  11.0184170  10.4814320  82.0353780
  11.5328840  10.3922330  82.8376210  10.1753250  10.8274020  82.3281690
  12.9938570  10.7669660  71.4637780  12.8339710  10.4772600  72.3619610
  12.8285280   9.9909790  70.9283010   5.4726950  10.5468190  73.2409400
   5.2969430   9.6303730  73.0277200   4.6182690  10.9055480  73.4807200
  12.6964700   8.2757220  70.0235780  12.0029860   8.2734510  69.3638060
  13.4387560   7.8516540  69.5929950  12.2614630   9.9019930  74.0984270
  12.7171580   9.1209310  74.4122890  12.6007150  10.6126750  74.6425450
   7.7353300   1.8964360  78.8979440   8.1023430   1.4222930  79.6440780
   7.5458360   2.7705930  79.2387780   4.0534460   5.1433990  71.8130500
   3.2796720   4.6031610  71.6529220   4.7829090   4.6240600  71.4748260
  14.8122440   4.1399350  77.6056890  15.5321560   4.6354640  77.2153000
  14.6104260   3.4617240  76.9610760  10.1941240   4.2108410  83.4925890
  10.1278550   3.2904080  83.2383480   9.5646380   4.3083850  84.2070530
   4.0971860   4.8114370  75.4509310   4.6150530   4.0082630  75.3966200
   3.6455880   4.7493510  76.2926140   8.9841360   6.0780650  70.7236610
   9.3257060   6.8222880  70.2279930   8.1554070   6.3911770  71.0861440
   4.7829520   2.2359980  85.2474560   4.4829660   2.3817160  84.3502380
   5.5540760   1.6765270  85.1547950  10.1257970   7.0328980  83.2429690
  10.1402510   6.1009940  83.0248600   9.4183070   7.1188740  83.8819460
  16.3369180   3.6736320  82.5898270  15.6117370   4.2665100  82.3927660
  16.8644640   3.6659860  81.7911640  16.2882290   8.0711060  72.2410430
  15.6458450   7.4166680  72.5154150  15.9012950   8.4766150  71.4651100
  11.8668770   5.3996490  76.0882120  12.2192590   4.8024620  75.4283490
  10.9831100   5.0740720  76.2590370   7.9532050   6.1594180  73.4952530
   8.6403180   6.7063390  73.8760120   7.1664470   6.7034910  73.5302140
   7.2559260   3.1640210  73.1077890   7.7122040   3.9745460  73.3338080
   6.9047470   2.8463350  73.9396380   9.5591870   8.6746550  80.3370190
  10.2034090   8.8805930  81.0143610   9.9221310   7.9134950  79.8841040
  10.8323950   6.6778900  79.0547640  11.4746180   5.9772060  79.1679810
  11.3573300   7.4577340  78.8744530  14.6779670   6.9627520  68.7786780
  14.4517250   6.2457960  69.3711420  14.2875870   6.7139960  67.9408530
  12.6061570   7.4773800  82.2583700  12.9417810   8.0640490  82.9361620
  11.6861910   7.3466510  82.4881490  14.2595920   4.8799460  70.4400940
  13.9717620   5.3412150  71.2278820  15.0548090   4.4197230  70.7085160
   8.4350150   7.5265130  85.4271760   8.1147020   6.8074370  85.9717450
   7.7608510   8.2020200  85.5007820   6.4764320   8.3725580  70.3704910
   6.4674420   9.1055270  69.7549420   5.5562680   8.1257160  70.4631870
   9.4623920   8.4353820  69.0330100   9.5635900   8.2317810  68.1032080
   8.5625660   8.1812100  69.2377880   8.1042030  10.9540140  73.7277770
   8.3583530  10.9161530  72.8057140   7.1554510  10.8273470  73.7206020
   4.0876250   3.5551620  68.8640240   4.8539520   3.4432980  69.4265670
   4.1650940   2.8589590  68.2117010  16.1120190   9.0440870  76.9790540
  16.2367610   9.8672040  77.4514350  16.9785750   8.8331600  76.6314690
   3.5837720  11.1372080  76.6507670   4.3200200  10.5887540  76.9216240
   3.9678640  12.0028090  76.5113660   2.5896000  10.3218150  85.8393250
   3.3908730  10.6430200  86.2528650   2.0747820   9.9613730  86.5613160
   6.6940030  10.3102390  68.4733240   7.4868640  10.5991220  68.0215030
   6.1744380   9.8794560  67.7945720  11.4260630   6.4298020  85.7868660
  10.8198790   6.4529620  85.0464410  11.1214740   5.6981060  86.3235910
  12.8561000  10.1578310  84.3978070  13.8082750  10.0736330  84.3478310
  12.7089220  10.8220020  85.0711860  15.7470200   9.5372520  69.8969980
  15.4611710   9.1237660  69.0824160  15.5489750  10.4660230  69.7770500
   7.2117430   5.5305800  68.3375590   7.1068070   4.9158150  69.0636970
   7.0441650   5.0071690  67.5538600   7.3631750   4.2162600  84.3164820
   6.5977420   4.7847600  84.2319490   7.5447710   3.9238810  83.4233050
  10.4520160   4.5925830  68.9417580   9.9030260   5.0395130  69.5860320
  11.0739420   4.0875080  69.4655250  14.5055100   5.9467930  84.8739840
  15.2464570   6.2843690  84.3707300  13.7427780   6.1159990  84.3209610
   6.1195280   3.5516750  70.8382880   6.5411700   3.3856620  71.6814270
   6.2446120   2.7416980  70.3438020   8.6322920   2.5754360  68.0859980
   9.1528580   1.8603380  67.7201130   9.2791320   3.2140230  68.3860490
  13.1800760   3.9982760  83.4095050  13.5941780   4.1527840  84.2585470
  12.2451760   4.1237980  83.5720830   7.9415990   3.9503240  81.3790980
   8.3604100   4.7935970  81.2067220   7.0224620   4.0875280  81.1497760
  12.6167790   2.2356610  81.3391330  12.0903010   2.7599230  80.7356470
  12.9599130   2.8684000  81.9701060   5.7923410  10.2556250  82.4948710
   5.2544500  10.9802310  82.1757410   6.0457370   9.7786590  81.7046050
   8.6485620  11.4907460  82.7535360   8.5744320  12.3942600  83.0607730
   7.7464460  11.1719360  82.7257430   9.1970950  10.6565970  70.3761720
  10.0921740  10.9950940  70.3980480   9.2288580   9.9345380  69.7486000
   2.8367110   6.0293020  68.6048720   3.2741980   6.5722690  69.2606300
   3.3214840   5.2039970  68.6145060   4.6474830   7.1491060  73.7170950
   4.3470370   7.0256030  74.6174860   4.5412320   6.2899650  73.3086680
  16.1765300   9.1869640  83.0827920  15.5767290   9.2462200  82.3391840
  16.3059200   8.2474620  83.2124770  17.4166750   6.9287460  68.4197630
  16.5859710   6.9964110  68.8904860  17.5938580   7.8191580  68.1164490
  16.8723210   3.6734940  70.9231830  17.6342120   4.2431590  71.0291520
  16.8877580   3.1062140  71.6940140  17.8783180   4.5285040  75.7673760
  18.2492010   3.7452360  75.3609730  18.5185110   5.2174140  75.5891060
  14.8616940   5.9121620  81.1804080  14.0476780   6.3418780  81.4429870
  15.2691140   6.5240030  80.5673130  16.9242380   3.9669310  68.0804350
  17.1991220   4.8748190  67.9523570  16.7353120   3.9031840  69.0166340
  14.9192990  10.6640220  74.7072350  15.5152060  10.3424790  74.0306770
  15.1771140  10.1912040  75.4985620   2.8255560   7.0958130  84.8562980
   2.7825190   6.7251040  85.7377440   2.9566570   8.0335700  84.9964800
   6.5261590   8.6517720  80.4572700   6.2852950   8.9192280  79.5703220
   7.4664230   8.8223450  80.5123560  17.7865750  10.6712100  81.2583340
  17.2924030  11.0680970  80.5410470  17.1779040  10.0461310  81.6520620
   2.6643590  10.0420380  81.9760760   2.0703910   9.9105080  82.7150800
   2.6567430   9.2058520  81.5102860  15.4705200  11.3135520  78.5370080
  15.0108170  12.0651330  78.1628100  14.8417660  10.5941990  78.4784880
   5.9000920   9.6223760  77.7118210   6.4165940   9.0111120  77.1866470
   6.5498300  10.1252540  78.2029220   8.6396420  10.5132250  78.5387190
   8.9274230  10.2586550  77.6620200   9.1519640   9.9609610  79.1292760
   2.1848520   9.4186380  71.5815700   1.6596140   9.7994410  70.8777660
   2.1093100  10.0437150  72.3025410   8.7068780  11.4348350  85.9055390
   9.6336090  11.1992620  85.9491350   8.6919210  12.2620350  85.4241420
  16.9413840  10.9773920  72.9029640  17.1166030  10.2911660  72.2590560
  16.2435410  11.5020970  72.5106310   4.7841490  11.3668760  70.4564950
   5.5160310  11.0828040  69.9088840   5.0435160  11.1282040  71.3464330
   3.9456280   7.4833490  70.4611280   3.3165160   7.9518590  71.0097110
   4.0604110   6.6382710  70.8957470  15.2746340  10.6618210  85.7296430
  16.0671660  10.1667440  85.5222390  15.5679490  11.3408350  86.3372040
   9.5324040   3.3118170  58.4921750   8.7566140   2.8318610  58.7820320
  10.1836970   2.6323820  58.3177910   3.5489870   3.6237980  59.3697510
   2.7174750   3.3686690  59.7694020   4.1570850   3.6948750  60.1055430
  13.5531470   7.7178360  57.2720880  13.0913000   6.9465600  57.6008050
  14.3657020   7.7444430  57.7773330   3.5291130   7.6578070  59.5655530
   3.8319170   6.7675810  59.3865750   4.2734720   8.2148290  59.3377780
   9.7794780  10.0036370  56.8924870   9.1606220  10.4593870  56.3219310
  10.6346560  10.1587830  56.4914570   8.9733030   5.9875360  58.4991910
   8.9041310   5.0465300  58.3381040   9.7352890   6.0776770  59.0714480
  10.6458130   4.8875610  54.2856780  10.0275400   5.3525060  53.7219500
  11.1581380   5.5803090  54.7026290   5.5089890   4.4151480  60.9640380
   5.1759270   5.0420400  61.6061450   5.6856570   4.9413360  60.1842050
   4.7208990   6.3832280  62.7789560   5.3382990   7.0583360  62.4974010
   3.8602110   6.7920260  62.6877060  15.6386580   7.8471690  60.6944200
  14.9550100   8.5170800  60.6860870  16.1780870   8.0452340  59.9289060
  13.1745320   9.6915820  59.4089380  13.1872480   9.2878110  58.5411640
  12.6220540  10.4663110  59.3050810  14.4690740   6.4132040  54.4979550
  14.3587070   5.4706370  54.6228970  14.4658990   6.7747680  55.3842310
  12.5730760   4.5945660  60.7371990  12.9899550   4.3805770  59.9025450
  13.2970580   4.8518450  61.3080610  10.0111020   2.0397360  53.8542040
   9.0840300   1.9734740  54.0830510  10.1635840   2.9777490  53.7397280
  16.5192860   2.9932880  60.8288230  15.6911490   3.0625970  60.3538360
  17.1143340   3.5787190  60.3604060  14.0408310   3.6017660  54.3577290
  13.4220730   3.2637210  53.7103590  14.0232760   2.9577420  55.0656480
   5.6167660   2.5662100  56.6361770   5.2124660   1.8539350  56.1407670
   5.7030780   2.2215340  57.5249810   6.0849360   6.2529660  58.8000980
   5.7877650   5.6475130  58.1208760   7.0349180   6.2906970  58.6890340
  14.1734970   9.8261530  62.4624080  13.6965530  10.6333720  62.2696690
  13.4896760   9.1739860  62.6150290   5.1767790   5.9911350  65.4508780
   4.2796320   6.2151320  65.6982180   5.2020660   6.1146290  64.5020180
  12.2173010   2.8404470  51.3650040  12.6566290   2.0026900  51.2187860
  12.9301430   3.4733870  51.4514180   4.0039010   2.8624670  64.0266150
   3.8646780   3.7347470  64.3953550   3.1220370   2.5197480  63.8814090
  10.3268390   7.7800540  55.3331280  10.7664300   8.5224870  54.9186670
  10.2655280   8.0227110  56.2570240   5.8019360   8.8046370  66.2351300
   5.7734790   9.2089320  65.3679730   5.6384330   7.8756730  66.0722900
  17.7534180   9.5873470  67.5315470  18.2293900  10.0656360  68.2104550
  18.3741340   9.5190960  66.8060970  17.1567430   6.7786320  64.6915480
  17.2830490   6.5398200  63.7732660  17.1988810   5.9470860  65.1637560
  11.0184170  10.4814320  63.2610290  11.5328840  10.3922330  64.0632720
  10.1753250  10.8274020  63.5538200  12.9938570  10.7669660  52.6894290
  12.8339710  10.4772600  53.5876120  12.8285280   9.9909790  52.1539520
   5.4726950  10.5468190  54.4665910   5.2969430   9.6303730  54.2533710
   4.6182690  10.9055480  54.7063710  12.6964700   8.2757220  51.2492290
  12.0029860   8.2734510  50.5894570  13.4387560   7.8516540  50.8186460
  12.2614630   9.9019930  55.3240780  12.7171580   9.1209310  55.6379400
  12.6007150  10.6126750  55.8681960   7.7353300   1.8964360  60.1235950
   8.1023430   1.4222930  60.8697290   7.5458360   2.7705930  60.4644290
   4.0534460   5.1433990  53.0387010   3.2796720   4.6031610  52.8785730
   4.7829090   4.6240600  52.7004770  14.8122440   4.1399350  58.8313400
  15.5321560   4.6354640  58.4409510  14.6104260   3.4617240  58.1867270
  10.1941240   4.2108410  64.7182400  10.1278550   3.2904080  64.4639990
   9.5646380   4.3083850  65.4327040   4.0971860   4.8114370  56.6765820
   4.6150530   4.0082630  56.6222710   3.6455880   4.7493510  57.5182650
   8.9841360   6.0780650  51.9493120   9.3257060   6.8222880  51.4536440
   8.1554070   6.3911770  52.3117950   4.7829520   2.2359980  66.4731070
   4.4829660   2.3817160  65.5758890   5.5540760   1.6765270  66.3804460
  10.1257970   7.0328980  64.4686200  10.1402510   6.1009940  64.2505110
   9.4183070   7.1188740  65.1075970  16.3369180   3.6736320  63.8154780
  15.6117370   4.2665100  63.6184170  16.8644640   3.6659860  63.0168150
  16.2882290   8.0711060  53.4666940  15.6458450   7.4166680  53.7410660
  15.9012950   8.4766150  52.6907610  11.8668770   5.3996490  57.3138630
  12.2192590   4.8024620  56.6540000  10.9831100   5.0740720  57.4846880
   7.9532050   6.1594180  54.7209040   8.6403180   6.7063390  55.1016630
   7.1664470   6.7034910  54.7558650   7.2559260   3.1640210  54.3334400
   7.7122040   3.9745460  54.5594590   6.9047470   2.8463350  55.1652890
   9.5591870   8.6746550  61.5626700  10.2034090   8.8805930  62.2400120
   9.9221310   7.9134950  61.1097550  10.8323950   6.6778900  60.2804150
  11.4746180   5.9772060  60.3936320  11.3573300   7.4577340  60.1001040
  14.6779670   6.9627520  50.0043290  14.4517250   6.2457960  50.5967930
  14.2875870   6.7139960  49.1665040  12.6061570   7.4773800  63.4840210
  12.9417810   8.0640490  64.1618130  11.6861910   7.3466510  63.7138000
  14.2595920   4.8799460  51.6657450  13.9717620   5.3412150  52.4535330
  15.0548090   4.4197230  51.9341670   8.4350150   7.5265130  66.6528270
   8.1147020   6.8074370  67.1973960   7.7608510   8.2020200  66.7264330
   6.4764320   8.3725580  51.5961420   6.4674420   9.1055270  50.9805930
   5.5562680   8.1257160  51.6888380   9.4623920   8.4353820  50.2586610
   9.5635900   8.2317810  49.3288590   8.5625660   8.1812100  50.4634390
   8.1042030  10.9540140  54.9534280   8.3583530  10.9161530  54.0313650
   7.1554510  10.8273470  54.9462530   4.0876250   3.5551620  50.0896750
   4.8539520   3.4432980  50.6522180   4.1650940   2.8589590  49.4373520
  16.1120190   9.0440870  58.2047050  16.2367610   9.8672040  58.6770860
  16.9785750   8.8331600  57.8571200   3.5837720  11.1372080  57.8764180
   4.3200200  10.5887540  58.1472750   3.9678640  12.0028090  57.7370170
   2.5896000  10.3218150  67.0649760   3.3908730  10.6430200  67.4785160
   2.0747820   9.9613730  67.7869670   6.6940030  10.3102390  49.6989750
   7.4868640  10.5991220  49.2471540   6.1744380   9.8794560  49.0202230
  11.4260630   6.4298020  67.0125170  10.8198790   6.4529620  66.2720920
  11.1214740   5.6981060  67.5492420  12.8561000  10.1578310  65.6234580
  13.8082750  10.0736330  65.5734820  12.7089220  10.8220020  66.2968370
  15.7470200   9.5372520  51.1226490  15.4611710   9.1237660  50.3080670
  15.5489750  10.4660230  51.0027010   7.2117430   5.5305800  49.5632100
   7.1068070   4.9158150  50.2893480   7.0441650   5.0071690  48.7795110
   7.3631750   4.2162600  65.5421330   6.5977420   4.7847600  65.4576000
   7.5447710   3.9238810  64.6489560  10.4520160   4.5925830  50.1674090
   9.9030260   5.0395130  50.8116830  11.0739420   4.0875080  50.6911760
  14.5055100   5.9467930  66.0996350  15.2464570   6.2843690  65.5963810
  13.7427780   6.1159990  65.5466120   6.1195280   3.5516750  52.0639390
   6.5411700   3.3856620  52.9070780   6.2446120   2.7416980  51.5694530
   8.6322920   2.5754360  49.3116490   9.1528580   1.8603380  48.9457640
   9.2791320   3.2140230  49.6117000  13.1800760   3.9982760  64.6351560
  13.5941780   4.1527840  65.4841980  12.2451760   4.1237980  64.7977340
   7.9415990   3.9503240  62.6047490   8.3604100   4.7935970  62.4323730
   7.0224620   4.0875280  62.3754270  12.6167790   2.2356610  62.5647840
  12.0903010   2.7599230  61.9612980  12.9599130   2.8684000  63.1957570
   5.7923410  10.2556250  63.7205220   5.2544500  10.9802310  63.4013920
   6.0457370   9.7786590  62.9302560   8.6485620  11.4907460  63.9791870
   8.5744320  12.3942600  64.2864240   7.7464460  11.1719360  63.9513940
   9.1970950  10.6565970  51.6018230  10.0921740  10.9950940  51.6236990
   9.2288580   9.9345380  50.9742510   2.8367110   6.0293020  49.8305230
   3.2741980   6.5722690  50.4862810   3.3214840   5.2039970  49.8401570
   4.6474830   7.1491060  54.9427460   4.3470370   7.0256030  55.8431370
   4.5412320   6.2899650  54.5343190  16.1765300   9.1869640  64.3084430
  15.5767290   9.2462200  63.5648350  16.3059200   8.2474620  64.4381280
  17.4166750   6.9287460  49.6454140  16.5859710   6.9964110  50.1161370
  17.5938580   7.8191580  49.3421000  16.8723210   3.6734940  52.1488340
  17.6342120   4.2431590  52.2548030  16.8877580   3.1062140  52.9196650
  17.8783180   4.5285040  56.9930270  18.2492010   3.7452360  56.5866240
  18.5185110   5.2174140  56.8147570  14.8616940   5.9121620  62.4060590
  14.0476780   6.3418780  62.6686380  15.2691140   6.5240030  61.7929640
  16.9242380   3.9669310  49.3060860  17.1991220   4.8748190  49.1780080
  16.7353120   3.9031840  50.2422850  14.9192990  10.6640220  55.9328860
  15.5152060  10.3424790  55.2563280  15.1771140  10.1912040  56.7242130
   2.8255560   7.0958130  66.0819490   2.7825190   6.7251040  66.9633950
   2.9566570   8.0335700  66.2221310   6.5261590   8.6517720  61.6829210
   6.2852950   8.9192280  60.7959730   7.4664230   8.8223450  61.7380070
  17.7865750  10.6712100  62.4839850  17.2924030  11.0680970  61.7666980
  17.1779040  10.0461310  62.8777130   2.6643590  10.0420380  63.2017270
   2.0703910   9.9105080  63.9407310   2.6567430   9.2058520  62.7359370
  15.4705200  11.3135520  59.7626590  15.0108170  12.0651330  59.3884610
  14.8417660  10.5941990  59.7041390   5.9000920   9.6223760  58.9374720
   6.4165940   9.0111120  58.4122980   6.5498300  10.1252540  59.4285730
   8.6396420  10.5132250  59.7643700   8.9274230  10.2586550  58.8876710
   9.1519640   9.9609610  60.3549270   2.1848520   9.4186380  52.8072210
   1.6596140   9.7994410  52.1034170   2.1093100  10.0437150  53.5281920
   8.7068780  11.4348350  67.1311900   9.6336090  11.1992620  67.1747860
   8.6919210  12.2620350  66.6497930  16.9413840  10.9773920  54.1286150
  17.1166030  10.2911660  53.4847070  16.2435410  11.5020970  53.7362820
   4.7841490  11.3668760  51.6821460   5.5160310  11.0828040  51.1345350
   5.0435160  11.1282040  52.5720840   3.9456280   7.4833490  51.6867790
   3.3165160   7.9518590  52.2353620   4.0604110   6.6382710  52.1213980
  15.2746340  10.6618210  66.9552940  16.0671660  10.1667440  66.7478900
  15.5679490  11.3408350  67.5628550   9.5324040   3.3118170  39.7178260
   8.7566140   2.8318610  40.0076830  10.1836970   2.6323820  39.5434420
   3.5489870   3.6237980  40.5954020   2.7174750   3.3686690  40.9950530
   4.1570850   3.6948750  41.3311940  13.5531470   7.7178360  38.4977390
  13.0913000   6.9465600  38.8264560  14.3657020   7.7444430  39.0029840
   3.5291130   7.6578070  40.7912040   3.8319170   6.7675810  40.6122260
   4.2734720   8.2148290  40.5634290   9.7794780  10.0036370  38.1181380
   9.1606220  10.4593870  37.5475820  10.6346560  10.1587830  37.7171080
   8.9733030   5.9875360  39.7248420   8.9041310   5.0465300  39.5637550
   9.7352890   6.0776770  40.2970990  10.6458130   4.8875610  35.5113290
  10.0275400   5.3525060  34.9476010  11.1581380   5.5803090  35.9282800
   5.5089890   4.4151480  42.1896890   5.1759270   5.0420400  42.8317960
   5.6856570   4.9413360  41.4098560   4.7208990   6.3832280  44.0046070
   5.3382990   7.0583360  43.7230520   3.8602110   6.7920260  43.9133570
  15.6386580   7.8471690  41.9200710  14.9550100   8.5170800  41.9117380
  16.1780870   8.0452340  41.1545570  13.1745320   9.6915820  40.6345890
  13.1872480   9.2878110  39.7668150  12.6220540  10.4663110  40.5307320
  14.4690740   6.4132040  35.7236060  14.3587070   5.4706370  35.8485480
  14.4658990   6.7747680  36.6098820  12.5730760   4.5945660  41.9628500
  12.9899550   4.3805770  41.1281960  13.2970580   4.8518450  42.5337120
  10.0111020   2.0397360  35.0798550   9.0840300   1.9734740  35.3087020
  10.1635840   2.9777490  34.9653790  16.5192860   2.9932880  42.0544740
  15.6911490   3.0625970  41.5794870  17.1143340   3.5787190  41.5860570
  14.0408310   3.6017660  35.5833800  13.4220730   3.2637210  34.9360100
  14.0232760   2.9577420  36.2912990   5.6167660   2.5662100  37.8618280
   5.2124660   1.8539350  37.3664180   5.7030780   2.2215340  38.7506320
   6.0849360   6.2529660  40.0257490   5.7877650   5.6475130  39.3465270
   7.0349180   6.2906970  39.9146850  14.1734970   9.8261530  43.6880590
  13.6965530  10.6333720  43.4953200  13.4896760   9.1739860  43.8406800
   5.1767790   5.9911350  46.6765290   4.2796320   6.2151320  46.9238690
   5.2020660   6.1146290  45.7276690  12.2173010   2.8404470  32.5906550
  12.6566290   2.0026900  32.4444370  12.9301430   3.4733870  32.6770690
   4.0039010   2.8624670  45.2522660   3.8646780   3.7347470  45.6210060
   3.1220370   2.5197480  45.1070600  10.3268390   7.7800540  36.5587790
  10.7664300   8.5224870  36.1443180  10.2655280   8.0227110  37.4826750
   5.8019360   8.8046370  47.4607810   5.7734790   9.2089320  46.5936240
   5.6384330   7.8756730  47.2979410  17.7534180   9.5873470  48.7571980
  18.2293900  10.0656360  49.4361060  18.3741340   9.5190960  48.0317480
  17.1567430   6.7786320  45.9171990  17.2830490   6.5398200  44.9989170
  17.1988810   5.9470860  46.3894070  11.0184170  10.4814320  44.4866800
  11.5328840  10.3922330  45.2889230  10.1753250  10.8274020  44.7794710
  12.9938570  10.7669660  33.9150800  12.8339710  10.4772600  34.8132630
  12.8285280   9.9909790  33.3796030   5.4726950  10.5468190  35.6922420
   5.2969430   9.6303730  35.4790220   4.6182690  10.9055480  35.9320220
  12.6964700   8.2757220  32.4748800  12.0029860   8.2734510  31.8151080
  13.4387560   7.8516540  32.0442970  12.2614630   9.9019930  36.5497290
  12.7171580   9.1209310  36.8635910  12.6007150  10.6126750  37.0938470
   7.7353300   1.8964360  41.3492460   8.1023430   1.4222930  42.0953800
   7.5458360   2.7705930  41.6900800   4.0534460   5.1433990  34.2643520
   3.2796720   4.6031610  34.1042240   4.7829090   4.6240600  33.9261280
  14.8122440   4.1399350  40.0569910  15.5321560   4.6354640  39.6666020
  14.6104260   3.4617240  39.4123780  10.1941240   4.2108410  45.9438910
  10.1278550   3.2904080  45.6896500   9.5646380   4.3083850  46.6583550
   4.0971860   4.8114370  37.9022330   4.6150530   4.0082630  37.8479220
   3.6455880   4.7493510  38.7439160   8.9841360   6.0780650  33.1749630
   9.3257060   6.8222880  32.6792950   8.1554070   6.3911770  33.5374460
   4.7829520   2.2359980  47.6987580   4.4829660   2.3817160  46.8015400
   5.5540760   1.6765270  47.6060970  10.1257970   7.0328980  45.6942710
  10.1402510   6.1009940  45.4761620   9.4183070   7.1188740  46.3332480
  16.3369180   3.6736320  45.0411290  15.6117370   4.2665100  44.8440680
  16.8644640   3.6659860  44.2424660  16.2882290   8.0711060  34.6923450
  15.6458450   7.4166680  34.9667170  15.9012950   8.4766150  33.9164120
  11.8668770   5.3996490  38.5395140  12.2192590   4.8024620  37.8796510
  10.9831100   5.0740720  38.7103390   7.9532050   6.1594180  35.9465550
   8.6403180   6.7063390  36.3273140   7.1664470   6.7034910  35.9815160
   7.2559260   3.1640210  35.5590910   7.7122040   3.9745460  35.7851100
   6.9047470   2.8463350  36.3909400   9.5591870   8.6746550  42.7883210
  10.2034090   8.8805930  43.4656630   9.9221310   7.9134950  42.3354060
  10.8323950   6.6778900  41.5060660  11.4746180   5.9772060  41.6192830
  11.3573300   7.4577340  41.3257550  14.6779670   6.9627520  31.2299800
  14.4517250   6.2457960  31.8224440  14.2875870   6.7139960  30.3921550
  12.6061570   7.4773800  44.7096720  12.9417810   8.0640490  45.3874640
  11.6861910   7.3466510  44.9394510  14.2595920   4.8799460  32.8913960
  13.9717620   5.3412150  33.6791840  15.0548090   4.4197230  33.1598180
   8.4350150   7.5265130  47.8784780   8.1147020   6.8074370  48.4230470
   7.7608510   8.2020200  47.9520840   6.4764320   8.3725580  32.8217930
   6.4674420   9.1055270  32.2062440   5.5562680   8.1257160  32.9144890
   9.4623920   8.4353820  31.4843120   9.5635900   8.2317810  30.5545100
   8.5625660   8.1812100  31.6890900   8.1042030  10.9540140  36.1790790
   8.3583530  10.9161530  35.2570160   7.1554510  10.8273470  36.1719040
   4.0876250   3.5551620  31.3153260   4.8539520   3.4432980  31.8778690
   4.1650940   2.8589590  30.6630030  16.1120190   9.0440870  39.4303560
  16.2367610   9.8672040  39.9027370  16.9785750   8.8331600  39.0827710
   3.5837720  11.1372080  39.1020690   4.3200200  10.5887540  39.3729260
   3.9678640  12.0028090  38.9626680   2.5896000  10.3218150  48.2906270
   3.3908730  10.6430200  48.7041670   2.0747820   9.9613730  49.0126180
   6.6940030  10.3102390  30.9246260   7.4868640  10.5991220  30.4728050
   6.1744380   9.8794560  30.2458740  11.4260630   6.4298020  48.2381680
  10.8198790   6.4529620  47.4977430  11.1214740   5.6981060  48.7748930
  12.8561000  10.1578310  46.8491090  13.8082750  10.0736330  46.7991330
  12.7089220  10.8220020  47.5224880  15.7470200   9.5372520  32.3483000
  15.4611710   9.1237660  31.5337180  15.5489750  10.4660230  32.2283520
   7.2117430   5.5305800  30.7888610   7.1068070   4.9158150  31.5149990
   7.0441650   5.0071690  30.0051620   7.3631750   4.2162600  46.7677840
   6.5977420   4.7847600  46.6832510   7.5447710   3.9238810  45.8746070
  10.4520160   4.5925830  31.3930600   9.9030260   5.0395130  32.0373340
  11.0739420   4.0875080  31.9168270  14.5055100   5.9467930  47.3252860
  15.2464570   6.2843690  46.8220320  13.7427780   6.1159990  46.7722630
   6.1195280   3.5516750  33.2895900   6.5411700   3.3856620  34.1327290
   6.2446120   2.7416980  32.7951040   8.6322920   2.5754360  30.5373000
   9.1528580   1.8603380  30.1714150   9.2791320   3.2140230  30.8373510
  13.1800760   3.9982760  45.8608070  13.5941780   4.1527840  46.7098490
  12.2451760   4.1237980  46.0233850   7.9415990   3.9503240  43.8304000
   8.3604100   4.7935970  43.6580240   7.0224620   4.0875280  43.6010780
  12.6167790   2.2356610  43.7904350  12.0903010   2.7599230  43.1869490
  12.9599130   2.8684000  44.4214080   5.7923410  10.2556250  44.9461730
   5.2544500  10.9802310  44.6270430   6.0457370   9.7786590  44.1559070
   8.6485620  11.4907460  45.2048380   8.5744320  12.3942600  45.5120750
   7.7464460  11.1719360  45.1770450   9.1970950  10.6565970  32.8274740
  10.0921740  10.9950940  32.8493500   9.2288580   9.9345380  32.1999020
   2.8367110   6.0293020  31.0561740   3.2741980   6.5722690  31.7119320
   3.3214840   5.2039970  31.0658080   4.6474830   7.1491060  36.1683970
   4.3470370   7.0256030  37.0687880   4.5412320   6.2899650  35.7599700
  16.1765300   9.1869640  45.5340940  15.5767290   9.2462200  44.7904860
  16.3059200   8.2474620  45.6637790  17.4166750   6.9287460  30.8710650
  16.5859710   6.9964110  31.3417880  17.5938580   7.8191580  30.5677510
  16.8723210   3.6734940  33.3744850  17.6342120   4.2431590  33.4804540
  16.8877580   3.1062140  34.1453160  17.8783180   4.5285040  38.2186780
  18.2492010   3.7452360  37.8122750  18.5185110   5.2174140  38.0404080
  14.8616940   5.9121620  43.6317100  14.0476780   6.3418780  43.8942890
  15.2691140   6.5240030  43.0186150  16.9242380   3.9669310  30.5317370
  17.1991220   4.8748190  30.4036590  16.7353120   3.9031840  31.4679360
  14.9192990  10.6640220  37.1585370  15.5152060  10.3424790  36.4819790
  15.1771140  10.1912040  37.9498640   2.8255560   7.0958130  47.3076000
   2.7825190   6.7251040  48.1890460   2.9566570   8.0335700  47.4477820
   6.5261590   8.6517720  42.9085720   6.2852950   8.9192280  42.0216240
   7.4664230   8.8223450  42.9636580  17.7865750  10.6712100  43.7096360
  17.2924030  11.0680970  42.9923490  17.1779040  10.0461310  44.1033640
   2.6643590  10.0420380  44.4273780   2.0703910   9.9105080  45.1663820
   2.6567430   9.2058520  43.9615880  15.4705200  11.3135520  40.9883100
  15.0108170  12.0651330  40.6141120  14.8417660  10.5941990  40.9297900
   5.9000920   9.6223760  40.1631230   6.4165940   9.0111120  39.6379490
   6.5498300  10.1252540  40.6542240   8.6396420  10.5132250  40.9900210
   8.9274230  10.2586550  40.1133220   9.1519640   9.9609610  41.5805780
   2.1848520   9.4186380  34.0328720   1.6596140   9.7994410  33.3290680
   2.1093100  10.0437150  34.7538430   8.7068780  11.4348350  48.3568410
   9.6336090  11.1992620  48.4004370   8.6919210  12.2620350  47.8754440
  16.9413840  10.9773920  35.3542660  17.1166030  10.2911660  34.7103580
  16.2435410  11.5020970  34.9619330   4.7841490  11.3668760  32.9077970
   5.5160310  11.0828040  32.3601860   5.0435160  11.1282040  33.7977350
   3.9456280   7.4833490  32.9124300   3.3165160   7.9518590  33.4610130
   4.0604110   6.6382710  33.3470490  15.2746340  10.6618210  48.1809450
  16.0671660  10.1667440  47.9735410  15.5679490  11.3408350  48.7885060
   9.5324040   3.3118170  20.9434770   8.7566140   2.8318610  21.2333340
  10.1836970   2.6323820  20.7690930   3.5489870   3.6237980  21.8210530
   2.7174750   3.3686690  22.2207040   4.1570850   3.6948750  22.5568450
  13.5531470   7.7178360  19.7233900  13.0913000   6.9465600  20.0521070
  14.3657020   7.7444430  20.2286350   3.5291130   7.6578070  22.0168550
   3.8319170   6.7675810  21.8378770   4.2734720   8.2148290  21.7890800
   9.7794780  10.0036370  19.3437890   9.1606220  10.4593870  18.7732330
  10.6346560  10.1587830  18.9427590   8.9733030   5.9875360  20.9504930
   8.9041310   5.0465300  20.7894060   9.7352890   6.0776770  21.5227500
  10.6458130   4.8875610  16.7369800  10.0275400   5.3525060  16.1732520
  11.1581380   5.5803090  17.1539310   5.5089890   4.4151480  23.4153400
   5.1759270   5.0420400  24.0574470   5.6856570   4.9413360  22.6355070
   4.7208990   6.3832280  25.2302580   5.3382990   7.0583360  24.9487030
   3.8602110   6.7920260  25.1390080  15.6386580   7.8471690  23.1457220
  14.9550100   8.5170800  23.1373890  16.1780870   8.0452340  22.3802080
  13.1745320   9.6915820  21.8602400  13.1872480   9.2878110  20.9924660
  12.6220540  10.4663110  21.7563830  14.4690740   6.4132040  16.9492570
  14.3587070   5.4706370  17.0741990  14.4658990   6.7747680  17.8355330
  12.5730760   4.5945660  23.1885010  12.9899550   4.3805770  22.3538470
  13.2970580   4.8518450  23.7593630  10.0111020   2.0397360  16.3055060
   9.0840300   1.9734740  16.5343530  10.1635840   2.9777490  16.1910300
  16.5192860   2.9932880  23.2801250  15.6911490   3.0625970  22.8051380
  17.1143340   3.5787190  22.8117080  14.0408310   3.6017660  16.8090310
  13.4220730   3.2637210  16.1616610  14.0232760   2.9577420  17.5169500
   5.6167660   2.5662100  19.0874790   5.2124660   1.8539350  18.5920690
   5.7030780   2.2215340  19.9762830   6.0849360   6.2529660  21.2514000
   5.7877650   5.6475130  20.5721780   7.0349180   6.2906970  21.1403360
  14.1734970   9.8261530  24.9137100  13.6965530  10.6333720  24.7209710
  13.4896760   9.1739860  25.0663310   5.1767790   5.9911350  27.9021800
   4.2796320   6.2151320  28.1495200   5.2020660   6.1146290  26.9533200
  12.2173010   2.8404470  13.8163060  12.6566290   2.0026900  13.6700880
  12.9301430   3.4733870  13.9027200   4.0039010   2.8624670  26.4779170
   3.8646780   3.7347470  26.8466570   3.1220370   2.5197480  26.3327110
  10.3268390   7.7800540  17.7844300  10.7664300   8.5224870  17.3699690
  10.2655280   8.0227110  18.7083260   5.8019360   8.8046370  28.6864320
   5.7734790   9.2089320  27.8192750   5.6384330   7.8756730  28.5235920
  17.7534180   9.5873470  29.9828490  18.2293900  10.0656360  30.6617570
  18.3741340   9.5190960  29.2573990  17.1567430   6.7786320  27.1428500
  17.2830490   6.5398200  26.2245680  17.1988810   5.9470860  27.6150580
  11.0184170  10.4814320  25.7123310  11.5328840  10.3922330  26.5145740
  10.1753250  10.8274020  26.0051220  12.9938570  10.7669660  15.1407310
  12.8339710  10.4772600  16.0389140  12.8285280   9.9909790  14.6052540
   5.4726950  10.5468190  16.9178930   5.2969430   9.6303730  16.7046730
   4.6182690  10.9055480  17.1576730  12.6964700   8.2757220  13.7005310
  12.0029860   8.2734510  13.0407590  13.4387560   7.8516540  13.2699480
  12.2614630   9.9019930  17.7753800  12.7171580   9.1209310  18.0892420
  12.6007150  10.6126750  18.3194980   7.7353300   1.8964360  22.5748970
   8.1023430   1.4222930  23.3210310   7.5458360   2.7705930  22.9157310
   4.0534460   5.1433990  15.4900030   3.2796720   4.6031610  15.3298750
   4.7829090   4.6240600  15.1517790  14.8122440   4.1399350  21.2826420
  15.5321560   4.6354640  20.8922530  14.6104260   3.4617240  20.6380290
  10.1941240   4.2108410  27.1695420  10.1278550   3.2904080  26.9153010
   9.5646380   4.3083850  27.8840060   4.0971860   4.8114370  19.1278840
   4.6150530   4.0082630  19.0735730   3.6455880   4.7493510  19.9695670
   8.9841360   6.0780650  14.4006140   9.3257060   6.8222880  13.9049460
   8.1554070   6.3911770  14.7630970   4.7829520   2.2359980  28.9244090
   4.4829660   2.3817160  28.0271910   5.5540760   1.6765270  28.8317480
  10.1257970   7.0328980  26.9199220  10.1402510   6.1009940  26.7018130
   9.4183070   7.1188740  27.5588990  16.3369180   3.6736320  26.2667800
  15.6117370   4.2665100  26.0697190  16.8644640   3.6659860  25.4681170
  16.2882290   8.0711060  15.9179960  15.6458450   7.4166680  16.1923680
  15.9012950   8.4766150  15.1420630  11.8668770   5.3996490  19.7651650
  12.2192590   4.8024620  19.1053020  10.9831100   5.0740720  19.9359900
   7.9532050   6.1594180  17.1722060   8.6403180   6.7063390  17.5529650
   7.1664470   6.7034910  17.2071670   7.2559260   3.1640210  16.7847420
   7.7122040   3.9745460  17.0107610   6.9047470   2.8463350  17.6165910
   9.5591870   8.6746550  24.0139720  10.2034090   8.8805930  24.6913140
   9.9221310   7.9134950  23.5610570  10.8323950   6.6778900  22.7317170
  11.4746180   5.9772060  22.8449340  11.3573300   7.4577340  22.5514060
  14.6779670   6.9627520  12.4556310  14.4517250   6.2457960  13.0480950
  14.2875870   6.7139960  11.6178060  12.6061570   7.4773800  25.9353230
  12.9417810   8.0640490  26.6131150  11.6861910   7.3466510  26.1651020
  14.2595920   4.8799460  14.1170470  13.9717620   5.3412150  14.9048350
  15.0548090   4.4197230  14.3854690   8.4350150   7.5265130  29.1041290
   8.1147020   6.8074370  29.6486980   7.7608510   8.2020200  29.1777350
   6.4764320   8.3725580  14.0474440   6.4674420   9.1055270  13.4318950
   5.5562680   8.1257160  14.1401400   9.4623920   8.4353820  12.7099630
   9.5635900   8.2317810  11.7801610   8.5625660   8.1812100  12.9147410
   8.1042030  10.9540140  17.4047300   8.3583530  10.9161530  16.4826670
   7.1554510  10.8273470  17.3975550   4.0876250   3.5551620  12.5409770
   4.8539520   3.4432980  13.1035200   4.1650940   2.8589590  11.8886540
  16.1120190   9.0440870  20.6560070  16.2367610   9.8672040  21.1283880
  16.9785750   8.8331600  20.3084220   3.5837720  11.1372080  20.3277200
   4.3200200  10.5887540  20.5985770   3.9678640  12.0028090  20.1883190
   2.5896000  10.3218150  29.5162780   3.3908730  10.6430200  29.9298180
   2.0747820   9.9613730  30.2382690   6.6940030  10.3102390  12.1502770
   7.4868640  10.5991220  11.6984560   6.1744380   9.8794560  11.4715250
  11.4260630   6.4298020  29.4638190  10.8198790   6.4529620  28.7233940
  11.1214740   5.6981060  30.0005440  12.8561000  10.1578310  28.0747600
  13.8082750  10.0736330  28.0247840  12.7089220  10.8220020  28.7481390
  15.7470200   9.5372520  13.5739510  15.4611710   9.1237660  12.7593690
  15.5489750  10.4660230  13.4540030   7.2117430   5.5305800  12.0145120
   7.1068070   4.9158150  12.7406500   7.0441650   5.0071690  11.2308130
   7.3631750   4.2162600  27.9934350   6.5977420   4.7847600  27.9089020
   7.5447710   3.9238810  27.1002580  10.4520160   4.5925830  12.6187110
   9.9030260   5.0395130  13.2629850  11.0739420   4.0875080  13.1424780
  14.5055100   5.9467930  28.5509370  15.2464570   6.2843690  28.0476830
  13.7427780   6.1159990  27.9979140   6.1195280   3.5516750  14.5152410
   6.5411700   3.3856620  15.3583800   6.2446120   2.7416980  14.0207550
   8.6322920   2.5754360  11.7629510   9.1528580   1.8603380  11.3970660
   9.2791320   3.2140230  12.0630020  13.1800760   3.9982760  27.0864580
  13.5941780   4.1527840  27.9355000  12.2451760   4.1237980  27.2490360
   7.9415990   3.9503240  25.0560510   8.3604100   4.7935970  24.8836750
   7.0224620   4.0875280  24.8267290  12.6167790   2.2356610  25.0160860
  12.0903010   2.7599230  24.4126000  12.9599130   2.8684000  25.6470590
   5.7923410  10.2556250  26.1718240   5.2544500  10.9802310  25.8526940
   6.0457370   9.7786590  25.3815580   8.6485620  11.4907460  26.4304890
   8.5744320  12.3942600  26.7377260   7.7464460  11.1719360  26.4026960
   9.1970950  10.6565970  14.0531250  10.0921740  10.9950940  14.0750010
   9.2288580   9.9345380  13.4255530   2.8367110   6.0293020  12.2818250
   3.2741980   6.5722690  12.9375830   3.3214840   5.2039970  12.2914590
   4.6474830   7.1491060  17.3940480   4.3470370   7.0256030  18.2944390
   4.5412320   6.2899650  16.9856210  16.1765300   9.1869640  26.7597450
  15.5767290   9.2462200  26.0161370  16.3059200   8.2474620  26.8894300
  17.4166750   6.9287460  12.0967160  16.5859710   6.9964110  12.5674390
  17.5938580   7.8191580  11.7934020  16.8723210   3.6734940  14.6001360
  17.6342120   4.2431590  14.7061050  16.8877580   3.1062140  15.3709670
  17.8783180   4.5285040  19.4443290  18.2492010   3.7452360  19.0379260
  18.5185110   5.2174140  19.2660590  14.8616940   5.9121620  24.8573610
  14.0476780   6.3418780  25.1199400  15.2691140   6.5240030  24.2442660
  16.9242380   3.9669310  11.7573880  17.1991220   4.8748190  11.6293100
  16.7353120   3.9031840  12.6935870  14.9192990  10.6640220  18.3841880
  15.5152060  10.3424790  17.7076300  15.1771140  10.1912040  19.1755150
   2.8255560   7.0958130  28.5332510   2.7825190   6.7251040  29.4146970
   2.9566570   8.0335700  28.6734330   6.5261590   8.6517720  24.1342230
   6.2852950   8.9192280  23.2472750   7.4664230   8.8223450  24.1893090
  17.7865750  10.6712100  24.9352870  17.2924030  11.0680970  24.2180000
  17.1779040  10.0461310  25.3290150   2.6643590  10.0420380  25.6530290
   2.0703910   9.9105080  26.3920330   2.6567430   9.2058520  25.1872390
  15.4705200  11.3135520  22.2139610  15.0108170  12.0651330  21.8397630
  14.8417660  10.5941990  22.1554410   5.9000920   9.6223760  21.3887740
   6.4165940   9.0111120  20.8636000   6.5498300  10.1252540  21.8798750
   8.6396420  10.5132250  22.2156720   8.9274230  10.2586550  21.3389730
   9.1519640   9.9609610  22.8062290   2.1848520   9.4186380  15.2585230
   1.6596140   9.7994410  14.5547190   2.1093100  10.0437150  15.9794940
   8.7068780  11.4348350  29.5824920   9.6336090  11.1992620  29.6260880
   8.6919210  12.2620350  29.1010950  16.9413840  10.9773920  16.5799170
  17.1166030  10.2911660  15.9360090  16.2435410  11.5020970  16.1875840
   4.7841490  11.3668760  14.1334480   5.5160310  11.0828040  13.5858370
   5.0435160  11.1282040  15.0233860   3.9456280   7.4833490  14.1380810
   3.3165160   7.9518590  14.6866640   4.0604110   6.6382710  14.5727000
  15.2746340  10.6618210  29.4065960  16.0671660  10.1667440  29.1991920
  15.5679490  11.3408350  30.0141570   9.5324040   3.3118170   2.1691280
   8.7566140   2.8318610   2.4589850  10.1836970   2.6323820   1.9947440
   3.5489870   3.6237980   3.0467040   2.7174750   3.3686690   3.4463550
   4.1570850   3.6948750   3.7824960   3.5291130   7.6578070   3.2425060
   3.8319170   6.7675810   3.0635280   4.2734720   8.2148290   3.0147310
   8.9733030   5.9875360   2.1761440   8.9041310   5.0465300   2.0150570
   9.7352890   6.0776770   2.7484010   5.5089890   4.4151480   4.6409910
   5.1759270   5.0420400   5.2830980   5.6856570   4.9413360   3.8611580
   4.7208990   6.3832280   6.4559090   5.3382990   7.0583360   6.1743540
   3.8602110   6.7920260   6.3646590  15.6386580   7.8471690   4.3713730
  14.9550100   8.5170800   4.3630400  16.1780870   8.0452340   3.6058590
  13.1745320   9.6915820   3.0858910  13.1872480   9.2878110   2.2181170
  12.6220540  10.4663110   2.9820340  12.5730760   4.5945660   4.4141520
  12.9899550   4.3805770   3.5794980  13.2970580   4.8518450   4.9850140
  16.5192860   2.9932880   4.5057760  15.6911490   3.0625970   4.0307890
  17.1143340   3.5787190   4.0373590   6.0849360   6.2529660   2.4770510
   5.7877650   5.6475130   1.7978290   7.0349180   6.2906970   2.3659870
  14.1734970   9.8261530   6.1393610  13.6965530  10.6333720   5.9466220
  13.4896760   9.1739860   6.2919820   5.1767790   5.9911350   9.1278310
   4.2796320   6.2151320   9.3751710   5.2020660   6.1146290   8.1789710
   4.0039010   2.8624670   7.7035680   3.8646780   3.7347470   8.0723080
   3.1220370   2.5197480   7.5583620   5.8019360   8.8046370   9.9120830
   5.7734790   9.2089320   9.0449260   5.6384330   7.8756730   9.7492430
  17.7534180   9.5873470  11.2085000  18.2293900  10.0656360  11.8874080
  18.3741340   9.5190960  10.4830500  17.1567430   6.7786320   8.3685010
  17.2830490   6.5398200   7.4502190  17.1988810   5.9470860   8.8407090
  11.0184170  10.4814320   6.9379820  11.5328840  10.3922330   7.7402250
  10.1753250  10.8274020   7.2307730   7.7353300   1.8964360   3.8005480
   8.1023430   1.4222930   4.5466820   7.5458360   2.7705930   4.1413820
  14.8122440   4.1399350   2.5082930  15.5321560   4.6354640   2.1179040
  14.6104260   3.4617240   1.8636800  10.1941240   4.2108410   8.3951930
  10.1278550   3.2904080   8.1409520   9.5646380   4.3083850   9.1096570
   4.7829520   2.2359980  10.1500600   4.4829660   2.3817160   9.2528420
   5.5540760   1.6765270  10.0573990  10.1257970   7.0328980   8.1455730
  10.1402510   6.1009940   7.9274640   9.4183070   7.1188740   8.7845500
  16.3369180   3.6736320   7.4924310  15.6117370   4.2665100   7.2953700
  16.8644640   3.6659860   6.6937680   9.5591870   8.6746550   5.2396230
  10.2034090   8.8805930   5.9169650   9.9221310   7.9134950   4.7867080
  10.8323950   6.6778900   3.9573680  11.4746180   5.9772060   4.0705850
  11.3573300   7.4577340   3.7770570  12.6061570   7.4773800   7.1609740
  12.9417810   8.0640490   7.8387660  11.6861910   7.3466510   7.3907530
   8.4350150   7.5265130  10.3297800   8.1147020   6.8074370  10.8743490
   7.7608510   8.2020200  10.4033860   2.5896000  10.3218150  10.7419290
   3.3908730  10.6430200  11.1554690   2.0747820   9.9613730  11.4639200
  11.4260630   6.4298020  10.6894700  10.8198790   6.4529620   9.9490450
  11.1214740   5.6981060  11.2261950  12.8561000  10.1578310   9.3004110
  13.8082750  10.0736330   9.2504350  12.7089220  10.8220020   9.9737900
   7.3631750   4.2162600   9.2190860   6.5977420   4.7847600   9.1345530
   7.5447710   3.9238810   8.3259090  14.5055100   5.9467930   9.7765880
  15.2464570   6.2843690   9.2733340  13.7427780   6.1159990   9.2235650
  13.1800760   3.9982760   8.3121090  13.5941780   4.1527840   9.1611510
  12.2451760   4.1237980   8.4746870   7.9415990   3.9503240   6.2817020
   8.3604100   4.7935970   6.1093260   7.0224620   4.0875280   6.0523800
  12.6167790   2.2356610   6.2417370  12.0903010   2.7599230   5.6382510
  12.9599130   2.8684000   6.8727100   5.7923410  10.2556250   7.3974750
   5.2544500  10.9802310   7.0783450   6.0457370   9.7786590   6.6072090
   8.6485620  11.4907460   7.6561400   8.5744320  12.3942600   7.9633770
   7.7464460  11.1719360   7.6283470  16.1765300   9.1869640   7.9853960
  15.5767290   9.2462200   7.2417880  16.3059200   8.2474620   8.1150810
  14.8616940   5.9121620   6.0830120  14.0476780   6.3418780   6.3455910
  15.2691140   6.5240030   5.4699170   2.8255560   7.0958130   9.7589020
   2.7825190   6.7251040  10.6403480   2.9566570   8.0335700   9.8990840
   6.5261590   8.6517720   5.3598740   6.2852950   8.9192280   4.4729260
   7.4664230   8.8223450   5.4149600  17.7865750  10.6712100   6.1609380
  17.2924030  11.0680970   5.4436510  17.1779040  10.0461310   6.5546660
   2.6643590  10.0420380   6.8786800   2.0703910   9.9105080   7.6176840
   2.6567430   9.2058520   6.4128900  15.4705200  11.3135520   3.4396120
  15.0108170  12.0651330   3.0654140  14.8417660  10.5941990   3.3810920
   5.9000920   9.6223760   2.6144250   6.4165940   9.0111120   2.0892510
   6.5498300  10.1252540   3.1055260   8.6396420  10.5132250   3.4413230
   8.9274230  10.2586550   2.5646240   9.1519640   9.9609610   4.0318800
   8.7068780  11.4348350  10.8081430   9.6336090  11.1992620  10.8517390
   8.6919210  12.2620350  10.3267460  15.2746340  10.6618210  10.6322470
  16.0671660  10.1667440  10.4248430  15.5679490  11.3408350  11.2398080
  92.3446160  98.9602620  97.7143280  90.0000000  90.0000000  90.0000000
