NOT
 30831
  37.6938550  36.8198715  35.8959212  37.8838550  35.5598715  36.6459212
  36.8138550  33.3398715  34.5159212  36.6238550  34.9198715  37.4559212
  35.3138550  35.0098715  36.6659212  35.9438550  35.3298715  34.2159212
  34.1738550  35.7298715  37.3359212  34.8538550  37.9398715  36.2759212
  37.2238550  37.7498715  33.4159212  34.5538550  37.2298715  37.5359212
  39.0738550  38.6998715  33.4259212  36.1638550  38.6998715  36.3359212
  34.4038550  37.6898715  33.7959212  37.4738550  37.9598715  36.7759212
  34.2138550  39.8098715  33.9759212  38.7538550  36.9798715  34.9559212
  38.3038550  37.8898715  33.9459212  35.0138550  34.0398715  35.6659212
  36.0038550  34.2498715  34.7059212  33.7238550  38.6398715  35.7059212
  33.8338550  38.6798715  34.2359212  36.3738550  39.3098715  35.4459212
  35.9938550  39.4798715  37.0959212  37.4638550  37.5298715  37.7859212
  38.2838550  38.6998715  36.7959212  38.8038550  36.0698715  34.3559212
  39.6538550  37.3698715  35.4559212  35.0838550  33.0198715  36.0559212
  34.0738550  34.2298715  35.1359212  33.5238550  39.6298715  36.1259212
  32.8838550  37.9398715  35.8259212  38.2038550  34.7998715  35.9259212
  38.7138550  35.7398715  37.3559212  36.5338550  35.3898715  38.4359212
  36.8938550  33.9098715  37.7659212  33.8738550  35.1398715  38.2059212
  33.2838550  35.7998715  36.6859212  35.3438550  37.3498715  38.2859212
  33.7038550  37.6798715  38.0559212  35.9964023  35.5042423  30.6675423
  36.2860143  41.9136743  30.4068383  39.2797583  32.2409083  30.3360883
  67.1591253  63.9156453  62.3435033  67.0785303  63.0011063  62.0726743
  66.7455673  64.4123523  61.6374743  65.2909293  65.6935473  64.2244303
  64.5151393  65.2135913  64.5142873  65.9422223  65.0141123  64.0500463
  59.3075123  66.0055283  65.1020063  58.4760003  65.7503993  65.5016573
  59.9156103  66.0766053  65.8377983  69.3116723  70.0995663  63.0043433
  68.8498253  69.3282903  63.3330603  70.1242273  70.1261733  63.5095883
  59.2876383  70.0395373  65.2978083  59.5904423  69.1493113  65.1188303
  60.0319973  70.5965593  65.0700333  57.7167073  60.9657173  58.8862453
  56.8283773  61.3073143  58.7842333  58.0008263  60.7657493  57.9943283
  55.6800083  63.5662823  64.7702153  56.2516193  62.7985023  64.7705793
  55.6801623  63.8651583  63.8608763  64.7318283  68.3692663  64.2314463
  64.6626563  67.4282603  64.0703593  65.4938143  68.4594073  64.8037033
  56.9224953  58.9747183  66.5571083  56.7427793  58.0772933  66.8373843
  56.5205033  59.5219053  67.2318033  65.7623453  61.1763043  64.4583393
  66.1388273  60.3034923  64.3457063  65.6642963  61.5121743  63.5673833
  59.8928463  59.5488673  59.9200833  59.9995213  60.4492403  60.2269593
  58.9820823  59.5006643  59.6295483  69.5447573  58.6713483  61.3911733
  70.3657193  58.1810053  61.4337213  69.5781653  59.2611143  62.1443573
  57.5411623  61.4707683  65.1653423  58.2221733  61.7346053  65.7840823
  57.2259673  60.6308553  65.4991433  61.7336193  62.5175043  64.2526013
  62.2414413  63.0156013  64.8931033  62.2649433  61.7410243  64.0765373
  60.0172293  57.1573603  68.5189433  60.0190733  57.6745993  67.7135333
  59.1876603  56.6803783  68.4959363  66.4043383  67.2692913  60.0179333
  65.7860653  67.7342363  59.4542053  66.9166633  67.9620393  60.4348843
  61.2675143  66.7968783  66.6962933  60.9344523  67.4237703  67.3384003
  61.4441823  67.3230663  65.9164603  69.7809053  60.6113863  64.1639273
  69.0764623  60.8998753  64.7442383  70.1421213  61.4213973  63.8038833
  59.6987623  58.8683563  66.5259883  60.0404433  59.7125613  66.2313753
  58.7603433  59.0167303  66.6425223  60.4794243  68.7649583  68.5112113
  61.0968243  69.4400663  68.2296563  59.6187363  69.1737563  68.4199613
  55.7726583  67.9549443  57.3918963  55.3954563  68.4436543  56.6603863
  56.0299653  68.6274723  58.0225493  63.3815513  56.3565833  62.8504473
  63.6890493  55.8012723  62.1339973  62.4516213  56.4910293  62.6677463
  70.2275993  68.7949343  60.2302103  70.1172323  67.8523673  60.3551523
  70.2244243  69.1564983  61.1164863  68.3316013  66.9762963  66.4694543
  68.7484803  66.7623073  65.6348003  69.0555833  67.2335753  67.0403163
  65.7696273  64.4214663  59.5864593  64.8425553  64.3552043  59.8153063
  65.9221093  65.3594793  59.4719833  65.7565353  60.6931663  56.5831753
  64.8169023  60.8545623  56.6684213  66.0748613  61.4117343  56.0367743
  69.7993563  65.9834963  60.0899843  69.1805983  65.6454513  59.4426143
  69.7818013  65.3394723  60.7979033  69.2420123  62.1619503  67.5065653
  68.8291303  62.9873213  67.7605643  68.5096073  61.5764543  67.3142013
  61.3752913  64.9479403  62.3684323  60.9709913  64.2356653  61.8730223
  61.4616033  64.6032643  63.2572363  61.8434613  68.6346963  64.5323533
  61.5462903  68.0292433  63.8531313  62.7934433  68.6724273  64.4212893
  60.0881533  61.7222613  66.1483363  60.6396123  61.8317953  65.3736613
  60.6025043  62.0960213  66.8638593  67.9758263  65.2221773  57.0972593
  68.4151543  64.3844203  56.9510413  68.6886683  65.8551173  57.1836733
  66.0853643  70.1617843  61.0653833  66.5249553  70.9042173  60.6509223
  66.0240533  70.4044413  61.9892793  58.0757543  63.8424383  59.8690973
  57.9555143  64.5686473  59.2572243  57.7658433  63.0727293  59.3918883
  55.7142913  67.0139523  65.6759613  55.7923333  67.1488293  64.7315333
  56.3284593  66.3055413  65.8687733  56.9590543  68.7139713  62.0865793
  56.5518623  68.8554303  61.2319393  57.8503553  68.4299873  61.8837003
  68.4549953  70.6574523  56.9814843  67.7615113  70.6551813  56.3217123
  69.1972813  70.2333843  56.5509013  55.7702433  68.0553693  68.2154073
  55.9333473  67.5859053  67.3973443  56.2354883  67.5477253  68.8802913
  60.5421203  57.1859453  63.2514643  60.0989353  57.9668993  62.9199163
  61.1006193  57.5089343  63.9585583  64.8291013  60.0527973  68.8549963
  64.3670383  60.2610993  69.6669903  64.4269123  59.2387323  68.5520633
  63.6580023  56.8070153  58.1320473  63.0334203  56.8030023  58.8573783
  63.5710143  55.9401113  57.7356443  62.5797103  57.7306783  65.1104243
  62.8769433  58.6369613  65.0296263  63.1282663  57.2425563  64.4963813
  60.3335423  62.3093023  60.9795893  60.1076343  62.0930193  61.8842513
  59.5527953  62.7421483  60.6341863  67.5633183  62.3156393  59.5786543
  66.9642073  63.0392193  59.3950163  68.1112793  62.2533173  58.7962993
  66.1698053  60.9519933  61.6089823  66.5627623  61.2692133  60.7958513
  66.5314903  60.0731813  61.7234343  55.2062223  57.5420733  63.8320023
  54.9175273  58.1123593  64.5445003  55.9507983  57.0625183  64.1951253
  55.3932453  61.4840853  55.0422743  55.3107123  62.4271613  55.1837733
  55.0415513  61.3415763  54.1635093  66.7553193  63.5425683  65.7040603
  66.0234313  64.0512493  66.0530703  66.3577533  62.7255663  65.4029383
  63.1930583  60.2179883  64.1093093  63.1966643  59.7769833  63.2597633
  64.0881703  60.5397213  64.2164913  59.0432963  60.1006373  63.0687303
  58.7033013  60.5781603  63.8254353  58.2810283  59.6471493  62.7088403
  63.2550733  61.2191963  57.0999853  63.3763553  61.1778443  58.0485673
  62.8699243  62.0816113  56.9446583  67.2179103  58.9959363  65.1163543
  67.2351843  59.4468013  65.9605393  66.9694683  58.0965003  65.3296983
  62.2672233  63.5293103  56.4983153  61.6989133  63.0811353  55.8719063
  62.9761233  63.8885883  55.9648303  63.4938553  64.2781663  65.8558503
  63.8608683  63.8040233  66.6019843  63.3043613  65.1523233  66.1966843
  56.3579043  59.0225353  61.9851973  56.0725963  58.6581023  62.8230593
  56.2957903  58.2905813  61.3715113  61.2837923  63.3190303  68.1742713
  60.9794993  64.1982283  68.3993073  62.2384383  63.3790093  68.2100153
  59.8119713  67.5251293  58.7709563  59.0381973  66.9848913  58.6108283
  60.5414343  67.0057903  58.4327323  66.0317633  57.9154613  58.7065343
  65.2182243  57.4167783  58.6310653  65.8379583  58.7552863  58.2901693
  68.7466023  62.2874263  57.0027503  69.6345643  62.5991493  56.8278843
  68.7171113  61.4146513  56.6108083  59.8557113  67.1931673  62.4088373
  60.3735783  66.3899933  62.3545263  59.4041133  67.1310813  63.2505203
  64.7426613  68.4597953  57.6815673  65.0842313  69.2040183  57.1858993
  63.9139323  68.7729073  58.0440503  67.6254023  67.7813793  63.0461183
  67.9777843  67.1841923  62.3862553  66.7416353  67.4558023  63.2169433
  63.7117303  68.5411483  60.4531593  64.3988433  69.0880693  60.8339183
  62.9249723  69.0852213  60.4881203  55.8509703  64.1584303  55.9448673
  56.7204553  64.4409103  56.2284593  55.3600023  64.9720173  55.8297483
  63.0144513  65.5457513  60.0656953  63.4707293  66.3562763  60.2917143
  62.6632723  65.2280653  60.8975443  65.3177123  71.0563853  67.2949253
  65.9619343  71.2623233  67.9722673  65.6806563  70.2952253  66.8420103
  58.9156293  55.8895163  60.5379473  58.7870923  55.8813063  61.4864393
  58.0918313  56.2278253  60.1870483  66.5909203  69.0596203  66.0126703
  67.2331433  68.3589363  66.1258873  67.1158553  69.8394643  65.8323593
  70.4364923  69.3444823  55.7365843  70.2102503  68.6275263  56.3290483
  70.0461123  69.0957263  54.8987593  70.0181173  67.2616763  57.3980003
  69.7302873  67.7229453  58.1857883  70.8133343  66.8014533  57.6664223
  57.8356213  65.9757773  58.0730733  57.2284163  66.7156673  58.0826033
  58.3105563  66.0657133  57.2468933  67.4089003  60.1408593  67.7487623
  67.7769823  59.3203803  68.0767193  66.5487203  60.2010483  68.1643273
  70.7751033  59.0965533  58.5575183  70.1464193  59.2011203  57.8433413
  70.2802953  59.3162313  59.3469063  65.2209173  70.8171123  55.9909163
  65.3221153  70.6135113  55.0611143  64.3210913  70.5629403  56.1956943
  62.7435063  61.3751483  59.9733063  62.0351213  61.8437823  60.4146673
  63.0279543  60.7173493  60.6078253  64.3690993  62.7948183  67.9725593
  64.8676243  63.2694003  68.6377443  64.5113943  61.8711703  68.1795623
  66.7750493  58.1002143  61.4128853  66.6518273  58.1188273  60.4638363
  67.7235053  58.1481083  61.5327253  60.9470083  59.6836563  57.3483773
  61.7960613  60.1206713  57.2823963  60.5801353  59.9956823  58.1755833
  69.8679863  64.2549323  62.2615343  68.9270003  64.2699553  62.4363033
  70.1823933  63.4685283  62.7075643  59.8461503  65.9368923  55.8219303
  60.6124773  65.8250283  56.3844733  59.9236193  65.2406893  55.1696073
  58.5408263  63.3693993  56.5052193  58.6211853  62.4221503  56.6169593
  59.4328013  63.7000873  56.6112853  56.2268453  69.5862953  59.4828243
  55.3008233  69.8284093  59.4733653  56.6924883  70.4137213  59.3612993
  62.9702683  67.9123103  55.2954653  62.8653323  67.2975453  56.0216033
  62.8026903  67.3888993  54.5117663  66.2105413  66.9743133  55.8996643
  65.6615513  67.4212433  56.5439383  66.8324673  66.4692383  56.4234313
  61.8780533  65.9334053  57.7961943  62.2996953  65.7673923  58.6393333
  62.0031373  65.1234283  57.3017083  64.3908173  64.9571663  55.0439043
  64.9113833  64.2420683  54.6780193  65.0376573  65.5957533  55.3439553
  63.2941693  57.4366213  67.7157603  62.8458993  57.4590473  66.8703153
  62.6606893  57.0385233  68.3127903  63.7001243  66.3320543  68.3370043
  64.1189353  67.1753273  68.1646283  62.7809873  66.4692583  68.1076823
  68.3753043  64.6173913  68.2970393  67.8488263  65.1416533  67.6935533
  68.7184383  65.2501303  68.9280123  60.7739433  62.0067283  54.7420103
  60.5728493  61.1434643  55.1033443  60.6031483  61.9200643  53.8041703
  68.2527743  56.8175513  57.2706983  68.5330033  55.9743413  57.6266403
  67.4793473  57.0498623  57.7845733  59.5722233  59.1067903  54.7297983
  59.8748133  59.1135333  53.8217133  60.3116823  58.7565763  55.2265643
  62.7907163  58.0502523  55.7154183  62.4429163  57.3726513  55.1356633
  62.9919933  57.5892033  56.5297573  58.5952363  68.4110323  55.5627783
  59.0327233  68.9539993  56.2185363  59.0800093  67.5857273  55.5724123
  55.8098163  71.1999353  63.0148043  56.1401173  70.3320413  62.7826683
  56.2389163  71.4057873  63.8453003  60.4060083  69.5308363  60.6750013
  60.1055623  69.4073333  61.5753923  60.2997573  68.6716953  60.2665743
  56.1312803  64.5790173  62.1118553  55.4761643  64.3101813  61.4678253
  56.9690753  64.4694653  61.6620533  70.6202193  68.2938923  68.1383143
  69.8062033  68.7236083  68.4008933  71.0276393  68.9057333  67.5252193
  69.0803243  59.3731463  56.3337043  69.4988123  59.1862443  55.4933703
  68.7739303  58.5210513  56.6439973  57.1688733  64.9642743  66.6521893
  57.5361773  64.8770143  67.5317913  56.5999553  64.2009293  66.5528753
  55.3450883  61.7889103  58.0543883  54.4414963  62.0519303  57.8795543
  55.8291503  62.0600273  57.2743843  57.8878093  60.8454643  55.9638263
  58.5969793  60.4237863  55.4785543  57.1718033  60.9129873  55.3321613
  57.5352253  56.8993973  55.0040913  58.2580383  57.4402913  55.3222133
  57.8076773  56.6257393  54.1282453  57.2244443  56.1500163  64.9063533
  57.8720633  55.5997543  64.4658693  57.6446283  56.4043313  65.7279343
  56.9776443  56.3055833  67.6488853  56.6291263  56.7619653  68.4147033
  56.6464143  55.4112963  67.7311283  62.2846843  71.0335023  67.4151763
  62.0438203  71.3009583  66.5282283  63.2249483  71.2040753  67.4702623
  67.8683863  55.7169913  67.1369853  66.9943703  56.0505023  66.9342783
  67.7594613  55.2443093  67.9621723  68.7755843  57.9240783  68.5211573
  68.4469203  57.1092543  68.1413303  69.7238143  57.8810593  68.3977263
  58.0541073  69.7896063  67.8847863  57.3275133  69.1701353  67.8173813
  58.1150223  70.1836673  67.0145943  65.6158683  56.6339753  66.0762763
  64.8330473  57.1085253  66.3559523  65.3221613  55.7294583  65.9675943
  70.1679753  57.3362853  64.1211853  70.6087843  57.2807953  63.2733453
  69.8987343  58.2520863  64.1922033  56.9599093  56.9387233  58.5976483
  57.7178453  57.0516113  58.0240513  56.4976263  57.7756433  58.5519913
  63.5012903  59.0526503  61.5878793  62.6887413  58.6783393  61.2474673
  64.0054543  58.2971583  61.8899983  68.0037883  55.7168953  62.8261863
  68.6067253  56.2889163  63.3010383  67.2630873  56.2808393  62.6035763
  59.3324243  57.4651283  57.1378453  59.8617003  56.6781083  57.0086403
  59.9652563  58.1442473  57.3713983  61.5262083  57.2026423  60.1923843
  60.8964823  56.5013733  60.3593973  60.9867223  57.9630553  59.9757003
  59.7041533  69.8650793  57.4190343  59.0750413  70.3335893  57.9676173
  59.8189363  69.0200013  57.8536533  67.1591253  63.9156453  43.5691543
  67.0785303  63.0011063  43.2983253  66.7455673  64.4123523  42.8631253
  65.2909293  65.6935473  45.4500813  64.5151393  65.2135913  45.7399383
  65.9422223  65.0141123  45.2756973  59.3075123  66.0055283  46.3276573
  58.4760003  65.7503993  46.7273083  59.9156103  66.0766053  47.0634493
  69.3116723  70.0995663  44.2299943  68.8498253  69.3282903  44.5587113
  70.1242273  70.1261733  44.7352393  59.2876383  70.0395373  46.5234593
  59.5904423  69.1493113  46.3444813  60.0319973  70.5965593  46.2956843
  57.7167073  60.9657173  40.1118963  56.8283773  61.3073143  40.0098843
  58.0008263  60.7657493  39.2199793  55.6800083  63.5662823  45.9958663
  56.2516193  62.7985023  45.9962303  55.6801623  63.8651583  45.0865273
  64.7318283  68.3692663  45.4570973  64.6626563  67.4282603  45.2960103
  65.4938143  68.4594073  46.0293543  56.9224953  58.9747183  47.7827593
  56.7427793  58.0772933  48.0630353  56.5205033  59.5219053  48.4574543
  65.7623453  61.1763043  45.6839903  66.1388273  60.3034923  45.5713573
  65.6642963  61.5121743  44.7930343  59.8928463  59.5488673  41.1457343
  59.9995213  60.4492403  41.4526103  58.9820823  59.5006643  40.8551993
  69.5447573  58.6713483  42.6168243  70.3657193  58.1810053  42.6593723
  69.5781653  59.2611143  43.3700083  57.5411623  61.4707683  46.3909933
  58.2221733  61.7346053  47.0097333  57.2259673  60.6308553  46.7247943
  61.7336193  62.5175043  45.4782523  62.2414413  63.0156013  46.1187543
  62.2649433  61.7410243  45.3021883  60.0172293  57.1573603  49.7445943
  60.0190733  57.6745993  48.9391843  59.1876603  56.6803783  49.7215873
  66.4043383  67.2692913  41.2435843  65.7860653  67.7342363  40.6798563
  66.9166633  67.9620393  41.6605353  61.2675143  66.7968783  47.9219443
  60.9344523  67.4237703  48.5640513  61.4441823  67.3230663  47.1421113
  69.7809053  60.6113863  45.3895783  69.0764623  60.8998753  45.9698893
  70.1421213  61.4213973  45.0295343  59.6987623  58.8683563  47.7516393
  60.0404433  59.7125613  47.4570263  58.7603433  59.0167303  47.8681733
  60.4794243  68.7649583  49.7368623  61.0968243  69.4400663  49.4553073
  59.6187363  69.1737563  49.6456123  55.7726583  67.9549443  38.6175473
  55.3954563  68.4436543  37.8860373  56.0299653  68.6274723  39.2482003
  63.3815513  56.3565833  44.0760983  63.6890493  55.8012723  43.3596483
  62.4516213  56.4910293  43.8933973  70.2275993  68.7949343  41.4558613
  70.1172323  67.8523673  41.5808033  70.2244243  69.1564983  42.3421373
  68.3316013  66.9762963  47.6951053  68.7484803  66.7623073  46.8604513
  69.0555833  67.2335753  48.2659673  65.7696273  64.4214663  40.8121103
  64.8425553  64.3552043  41.0409573  65.9221093  65.3594793  40.6976343
  65.7565353  60.6931663  37.8088263  64.8169023  60.8545623  37.8940723
  66.0748613  61.4117343  37.2624253  69.7993563  65.9834963  41.3156353
  69.1805983  65.6454513  40.6682653  69.7818013  65.3394723  42.0235543
  69.2420123  62.1619503  48.7322163  68.8291303  62.9873213  48.9862153
  68.5096073  61.5764543  48.5398523  61.3752913  64.9479403  43.5940833
  60.9709913  64.2356653  43.0986733  61.4616033  64.6032643  44.4828873
  61.8434613  68.6346963  45.7580043  61.5462903  68.0292433  45.0787823
  62.7934433  68.6724273  45.6469403  60.0881533  61.7222613  47.3739873
  60.6396123  61.8317953  46.5993123  60.6025043  62.0960213  48.0895103
  60.9353043  68.3728653  52.4087843  60.0381573  68.5968623  52.6561243
  60.9605913  68.4963593  51.4599243  67.9758263  65.2221773  38.3229103
  68.4151543  64.3844203  38.1766923  68.6886683  65.8551173  38.4093243
  59.7624263  65.2441973  50.9845213  59.6232033  66.1164773  51.3532613
  58.8805623  64.9014783  50.8393153  66.0853643  70.1617843  42.2910343
  66.5249553  70.9042173  41.8765733  66.0240533  70.4044413  43.2149303
  58.0757543  63.8424383  41.0947483  57.9555143  64.5686473  40.4828753
  57.7658433  63.0727293  40.6175393  55.7142913  67.0139523  46.9016123
  55.7923333  67.1488293  45.9571843  56.3284593  66.3055413  47.0944243
  56.9590543  68.7139713  43.3122303  56.5518623  68.8554303  42.4575903
  57.8503553  68.4299873  43.1093513  68.4549953  70.6574523  38.2071353
  67.7615113  70.6551813  37.5473633  69.1972813  70.2333843  37.7765523
  55.7702433  68.0553693  49.4410583  55.9333473  67.5859053  48.6229953
  56.2354883  67.5477253  50.1059423  60.5421203  57.1859453  44.4771153
  60.0989353  57.9668993  44.1455673  61.1006193  57.5089343  45.1842093
  64.8291013  60.0527973  50.0806473  64.3670383  60.2610993  50.8926413
  64.4269123  59.2387323  49.7777143  69.8295523  61.2736923  51.2103133
  68.9789113  60.9742673  51.5312203  69.6697313  61.5178933  50.2986953
  66.9245233  62.7738673  53.3101923  67.2498643  61.9402423  52.9704153
  67.7125563  63.2967193  53.4580253  63.6580023  56.8070153  39.3576983
  63.0334203  56.8030023  40.0830293  63.5710143  55.9401113  38.9612953
  62.5797103  57.7306783  46.3360753  62.8769433  58.6369613  46.2552773
  63.1282663  57.2425563  45.7220323  60.3335423  62.3093023  42.2052403
  60.1076343  62.0930193  43.1099023  59.5527953  62.7421483  41.8598373
  67.5633183  62.3156393  40.8043053  66.9642073  63.0392193  40.6206673
  68.1112793  62.2533173  40.0219503  62.7734633  63.2078603  52.8712673
  62.6778233  62.2673333  52.7213073  63.6166613  63.4293673  52.4760743
  66.1698053  60.9519933  42.8346333  66.5627623  61.2692133  42.0215023
  66.5314903  60.0731813  42.9490853  57.9045173  59.6192273  51.0246453
  57.5108563  60.4667483  51.2319233  57.2163573  58.9818643  51.2155093
  64.4790223  59.7027243  54.0943193  63.7888543  59.5099443  54.7289283
  65.2222523  59.9861883  54.6267493  55.2062223  57.5420733  45.0576533
  54.9175273  58.1123593  45.7701513  55.9507983  57.0625183  45.4207763
  55.3932453  61.4840853  36.2679253  55.3107123  62.4271613  36.4094243
  55.0415513  61.3415763  35.3891603  66.7553193  63.5425683  46.9297113
  66.0234313  64.0512493  47.2787213  66.3577533  62.7255663  46.6285893
  63.1930583  60.2179883  45.3349603  63.1966643  59.7769833  44.4854143
  64.0881703  60.5397213  45.4421423  59.0432963  60.1006373  44.2943813
  58.7033013  60.5781603  45.0510863  58.2810283  59.6471493  43.9344913
  63.2550733  61.2191963  38.3256363  63.3763553  61.1778443  39.2742183
  62.8699243  62.0816113  38.1703093  67.2179103  58.9959363  46.3420053
  67.2351843  59.4468013  47.1861903  66.9694683  58.0965003  46.5553493
  62.2672233  63.5293103  37.7239663  61.6989133  63.0811353  37.0975573
  62.9761233  63.8885883  37.1904813  70.6449853  56.4091543  52.1806433
  70.9695623  55.6781203  52.7064413  70.6806363  56.0905183  51.2787423
  57.3441413  67.4305123  51.6006393  56.9596203  66.7898793  52.1989353
  57.6553603  68.1341243  52.1701123  63.4938553  64.2781663  47.0815013
  63.8608683  63.8040233  47.8276353  63.3043613  65.1523233  47.4223353
  56.3579043  59.0225353  43.2108483  56.0725963  58.6581023  44.0487103
  56.2957903  58.2905813  42.5971623  61.2837923  63.3190303  49.3999223
  60.9794993  64.1982283  49.6249583  62.2384383  63.3790093  49.4356663
  59.8119713  67.5251293  39.9966073  59.0381973  66.9848913  39.8364793
  60.5414343  67.0057903  39.6583833  66.0317633  57.9154613  39.9321853
  65.2182243  57.4167783  39.8567163  65.8379583  58.7552863  39.5158203
  65.9526493  66.5925713  51.6761463  65.8863803  65.6721383  51.4219053
  65.3231633  66.6901153  52.3906103  68.7466023  62.2874263  38.2284013
  69.6345643  62.5991493  38.0535353  68.7171113  61.4146513  37.8364593
  59.8557113  67.1931673  43.6344883  60.3735783  66.3899933  43.5801773
  59.4041133  67.1310813  44.4761713  64.7426613  68.4597953  38.9072183
  65.0842313  69.2040183  38.4115503  63.9139323  68.7729073  39.2697013
  57.3401653  64.1593043  50.5470583  56.9816593  64.8246893  51.1343923
  57.0456213  63.3276593  50.9183203  60.5414773  64.6177283  53.4310133
  60.2414913  64.7634463  52.5337953  61.3126013  64.0582573  53.3383523
  65.8843223  69.4146283  51.4265263  65.8987763  68.4827243  51.2084173
  65.1768323  69.5006043  52.0655033  67.6254023  67.7813793  44.2717693
  67.9777843  67.1841923  43.6119063  66.7416353  67.4558023  44.4425943
  63.7117303  68.5411483  41.6788103  64.3988433  69.0880693  42.0595693
  62.9249723  69.0852213  41.7137713  55.8509703  64.1584303  37.1705183
  56.7204553  64.4409103  37.4541103  55.3600023  64.9720173  37.0553993
  63.0144513  65.5457513  41.2913463  63.4707293  66.3562763  41.5173653
  62.6632723  65.2280653  42.1231953  65.3177123  71.0563853  48.5205763
  65.9619343  71.2623233  49.1979183  65.6806563  70.2952253  48.0676613
  58.9156293  55.8895163  41.7635983  58.7870923  55.8813063  42.7120903
  58.0918313  56.2278253  41.4126993  66.5909203  69.0596203  47.2383213
  67.2331433  68.3589363  47.3515383  67.1158553  69.8394643  47.0580103
  70.4364923  69.3444823  36.9622353  70.2102503  68.6275263  37.5546993
  70.0461123  69.0957263  36.1244103  68.3646823  69.8591103  50.4419273
  68.7003063  70.4457793  51.1197193  67.4447163  69.7283813  50.6717063
  55.9150223  57.6486283  51.2242683  55.2008743  57.8483203  51.8295293
  56.3345263  56.8725853  51.5957483  70.0181173  67.2616763  38.6236513
  69.7302873  67.7229453  39.4114393  70.8133343  66.8014533  38.8920733
  64.1935403  69.9082433  53.6107333  63.8732273  69.1891673  54.1553023
  63.5193763  70.5837503  53.6843393  57.8356213  65.9757773  39.2987243
  57.2284163  66.7156673  39.3082543  58.3105563  66.0657133  38.4725443
  67.4089003  60.1408593  48.9744133  67.7769823  59.3203803  49.3023703
  66.5487203  60.2010483  49.3899783  70.7751033  59.0965533  39.7831693
  70.1464193  59.2011203  39.0689923  70.2802953  59.3162313  40.5725573
  65.2209173  70.8171123  37.2165673  65.3221153  70.6135113  36.2867653
  64.3210913  70.5629403  37.4213453  62.7435063  61.3751483  41.1989573
  62.0351213  61.8437823  41.6403183  63.0279543  60.7173493  41.8334763
  64.3690993  62.7948183  49.1982103  64.8676243  63.2694003  49.8633953
  64.5113943  61.8711703  49.4052133  66.7750493  58.1002143  42.6385363
  66.6518273  58.1188273  41.6894873  67.7235053  58.1481083  42.7583763
  60.9470083  59.6836563  38.5740283  61.7960613  60.1206713  38.5080473
  60.5801353  59.9956823  39.4012343  69.8679863  64.2549323  43.4871853
  68.9270003  64.2699553  43.6619543  70.1823933  63.4685283  43.9332153
  59.8461503  65.9368923  37.0475813  60.6124773  65.8250283  37.6101243
  59.9236193  65.2406893  36.3952583  58.5408263  63.3693993  37.7308703
  58.6211853  62.4221503  37.8426103  59.4328013  63.7000873  37.8369363
  56.2268453  69.5862953  40.7084753  55.3008233  69.8284093  40.6990163
  56.6924883  70.4137213  40.5869503  67.1845883  68.8115323  53.9704233
  66.5784043  68.8346923  53.2299983  66.8799993  68.0798363  54.5071483
  56.0679063  65.1908913  52.9664873  56.5718083  64.6116193  53.5381103
  55.3286483  65.4749143  53.5041243  62.9702683  67.9123103  36.5211163
  62.8653323  67.2975453  37.2472543  62.8026903  67.3888993  35.7374173
  63.1217003  66.5979903  52.5000393  62.3562673  67.1664903  52.4155063
  63.3032963  66.3056113  51.6068623  66.2105413  66.9743133  37.1253153
  65.6615513  67.4212433  37.7695893  66.8324673  66.4692383  37.6490823
  70.2640353  68.3285233  53.0575413  71.0049823  68.6660993  52.5542873
  69.5013033  68.4977293  52.5045183  58.1002143  63.3338503  53.8614943
  58.1407483  63.0352373  54.7700173  58.9547643  63.7346113  53.7022463
  61.8780533  65.9334053  39.0218453  62.2996953  65.7673923  39.8649843
  62.0031373  65.1234283  38.5273593  60.0407953  61.9130603  51.8289433
  59.5104413  61.4221553  51.2012773  60.7096023  62.3414803  51.2947363
  64.3908173  64.9571663  36.2695553  64.9113833  64.2420683  35.9036703
  65.0376573  65.5957533  36.5696063  68.9386013  66.3800063  51.5930623
  69.3527033  66.5345143  52.4421043  68.0037013  66.5055283  51.7556403
  69.4108183  63.7196223  53.5969773  69.9928953  62.9648543  53.5090253
  69.5869953  64.2503663  52.8201253  60.5280253  58.8792973  51.9086723
  60.4337123  58.2613723  51.1837593  59.9477643  59.6059263  51.6816633
  63.2941693  57.4366213  48.9414113  62.8458993  57.4590473  48.0959663
  62.6606893  57.0385233  49.5384413  63.7001243  66.3320543  49.5626553
  64.1189353  67.1753273  49.3902793  62.7809873  66.4692583  49.3333333
  66.0365143  64.0636723  50.9464393  66.1561353  63.4677863  51.6859233
  66.8959143  64.1006413  50.5265693  68.3753043  64.6173913  49.5226903
  67.8488263  65.1416533  48.9192043  68.7184383  65.2501303  50.1536633
  60.7739433  62.0067283  35.9676613  60.5728493  61.1434643  36.3289953
  60.6031483  61.9200643  35.0298213  62.8033913  60.6058073  52.2040213
  63.3933603  60.2973923  52.8918033  61.9854153  60.1337823  52.3600113
  67.6227343  60.2223883  52.4373233  66.9342863  59.5605423  52.3723223
  68.3433363  59.7762153  52.8821693  68.2527743  56.8175513  38.4963493
  68.5330033  55.9743413  38.8522913  67.4793473  57.0498623  39.0102243
  59.5722233  59.1067903  35.9554493  59.8748133  59.1135333  35.0473643
  60.3116823  58.7565763  36.4522153  62.7907163  58.0502523  36.9410693
  62.4429163  57.3726513  36.3613143  62.9919933  57.5892033  37.7554083
  58.5952363  68.4110323  36.7884293  59.0327233  68.9539993  37.4441873
  59.0800093  67.5857273  36.7980633  55.8098163  71.1999353  44.2404553
  56.1401173  70.3320413  44.0083193  56.2389163  71.4057873  45.0709513
  60.4060083  69.5308363  41.9006523  60.1055623  69.4073333  42.8010433
  60.2997573  68.6716953  41.4922253  56.1312803  64.5790173  43.3375063
  55.4761643  64.3101813  42.6934763  56.9690753  64.4694653  42.8877043
  70.6202193  68.2938923  49.3639653  69.8062033  68.7236083  49.6265443
  71.0276393  68.9057333  48.7508703  69.0803243  59.3731463  37.5593553
  69.4988123  59.1862443  36.7190213  68.7739303  58.5210513  37.8696483
  57.1688733  64.9642743  47.8778403  57.5361773  64.8770143  48.7574423
  56.5999553  64.2009293  47.7785263  56.7204733  61.8751833  51.7836823
  55.8260783  61.8418593  52.1230533  57.2602283  62.0738623  52.5488073
  55.3450883  61.7889103  39.2800393  54.4414963  62.0519303  39.1052053
  55.8291503  62.0600273  38.5000353  57.8878093  60.8454643  37.1894773
  58.5969793  60.4237863  36.7042053  57.1718033  60.9129873  36.5578123
  57.5352253  56.8993973  36.2297423  58.2580383  57.4402913  36.5478643
  57.8076773  56.6257393  35.3538963  57.2244443  56.1500163  46.1320043
  57.8720633  55.5997543  45.6915203  57.6446283  56.4043313  46.9535853
  56.9776443  56.3055833  48.8745363  56.6291263  56.7619653  49.6403543
  56.6464143  55.4112963  48.9567793  58.5840813  69.4775433  53.0398553
  58.5410443  69.1068343  53.9213013  58.7151823  70.4153003  53.1800373
  62.2846843  71.0335023  48.6408273  62.0438203  71.3009583  47.7538793
  63.2249483  71.2040753  48.6959133  64.4901263  57.4967713  52.3964783
  64.4290153  58.0889543  53.1460193  65.4301643  57.3893673  52.2515043
  67.1275823  57.1537773  52.0357073  67.7416233  57.4717063  51.3738153
  67.6725383  56.6686363  52.6552933  57.6497083  55.8332033  52.1496133
  58.1980073  55.6520083  51.3862243  57.7152393  55.0426143  52.6852443
  67.8683863  55.7169913  48.3626363  66.9943703  56.0505023  48.1599293
  67.7594613  55.2443093  49.1878233  68.7755843  57.9240783  49.7468083
  68.4469203  57.1092543  49.3669813  69.7238143  57.8810593  49.6233773
  58.0541073  69.7896063  49.1104373  57.3275133  69.1701353  49.0430323
  58.1150223  70.1836673  48.2402453  65.6158683  56.6339753  47.3019273
  64.8330473  57.1085253  47.5816033  65.3221613  55.7294583  47.1932453
  70.1679753  57.3362853  45.3468363  70.6087843  57.2807953  44.4989963
  69.8987343  58.2520863  45.4178543  56.9599093  56.9387233  39.8232993
  57.7178453  57.0516113  39.2497023  56.4976263  57.7756433  39.7776423
  63.5012903  59.0526503  42.8135303  62.6887413  58.6783393  42.4731183
  64.0054543  58.2971583  43.1156493  68.0037883  55.7168953  44.0518373
  68.6067253  56.2889163  44.5266893  67.2630873  56.2808393  43.8292273
  59.3324243  57.4651283  38.3634963  59.8617003  56.6781083  38.2342913
  59.9652563  58.1442473  38.5970493  61.5262083  57.2026423  41.4180353
  60.8964823  56.5013733  41.5850483  60.9867223  57.9630553  41.2013513
  61.6517643  56.4810403  53.8532843  61.3701913  56.9844003  53.0893663
  62.0337343  55.6832153  53.4874973  59.7041533  69.8650793  38.6446853
  59.0750413  70.3335893  39.1932683  59.8189363  69.0200013  39.0793043
  68.2533103  55.8963983  54.4313313  68.1398553  56.2158593  55.3264833
  69.0702843  56.2976493  54.1350593  67.1591253  63.9156453  24.7948053
  67.0785303  63.0011063  24.5239763  66.7455673  64.4123523  24.0887763
  65.2909293  65.6935473  26.6757323  64.5151393  65.2135913  26.9655893
  65.9422223  65.0141123  26.5013483  59.3075123  66.0055283  27.5533083
  58.4760003  65.7503993  27.9529593  59.9156103  66.0766053  28.2891003
  69.3116723  70.0995663  25.4556453  68.8498253  69.3282903  25.7843623
  70.1242273  70.1261733  25.9608903  59.2876383  70.0395373  27.7491103
  59.5904423  69.1493113  27.5701323  60.0319973  70.5965593  27.5213353
  57.7167073  60.9657173  21.3375473  56.8283773  61.3073143  21.2355353
  58.0008263  60.7657493  20.4456303  55.6800083  63.5662823  27.2215173
  56.2516193  62.7985023  27.2218813  55.6801623  63.8651583  26.3121783
  64.7318283  68.3692663  26.6827483  64.6626563  67.4282603  26.5216613
  65.4938143  68.4594073  27.2550053  56.9224953  58.9747183  29.0084103
  56.7427793  58.0772933  29.2886863  56.5205033  59.5219053  29.6831053
  65.7623453  61.1763043  26.9096413  66.1388273  60.3034923  26.7970083
  65.6642963  61.5121743  26.0186853  59.8928463  59.5488673  22.3713853
  59.9995213  60.4492403  22.6782613  58.9820823  59.5006643  22.0808503
  69.5447573  58.6713483  23.8424753  70.3657193  58.1810053  23.8850233
  69.5781653  59.2611143  24.5956593  57.5411623  61.4707683  27.6166443
  58.2221733  61.7346053  28.2353843  57.2259673  60.6308553  27.9504453
  61.7336193  62.5175043  26.7039033  62.2414413  63.0156013  27.3444053
  62.2649433  61.7410243  26.5278393  60.0172293  57.1573603  30.9702453
  60.0190733  57.6745993  30.1648353  59.1876603  56.6803783  30.9472383
  66.4043383  67.2692913  22.4692353  65.7860653  67.7342363  21.9055073
  66.9166633  67.9620393  22.8861863  61.2675143  66.7968783  29.1475953
  60.9344523  67.4237703  29.7897023  61.4441823  67.3230663  28.3677623
  69.7809053  60.6113863  26.6152293  69.0764623  60.8998753  27.1955403
  70.1421213  61.4213973  26.2551853  59.6987623  58.8683563  28.9772903
  60.0404433  59.7125613  28.6826773  58.7603433  59.0167303  29.0938243
  60.4794243  68.7649583  30.9625133  61.0968243  69.4400663  30.6809583
  59.6187363  69.1737563  30.8712633  55.7726583  67.9549443  19.8431983
  55.3954563  68.4436543  19.1116883  56.0299653  68.6274723  20.4738513
  63.3815513  56.3565833  25.3017493  63.6890493  55.8012723  24.5852993
  62.4516213  56.4910293  25.1190483  70.2275993  68.7949343  22.6815123
  70.1172323  67.8523673  22.8064543  70.2244243  69.1564983  23.5677883
  68.3316013  66.9762963  28.9207563  68.7484803  66.7623073  28.0861023
  69.0555833  67.2335753  29.4916183  65.7696273  64.4214663  22.0377613
  64.8425553  64.3552043  22.2666083  65.9221093  65.3594793  21.9232853
  65.7565353  60.6931663  19.0344773  64.8169023  60.8545623  19.1197233
  66.0748613  61.4117343  18.4880763  69.7993563  65.9834963  22.5412863
  69.1805983  65.6454513  21.8939163  69.7818013  65.3394723  23.2492053
  69.2420123  62.1619503  29.9578673  68.8291303  62.9873213  30.2118663
  68.5096073  61.5764543  29.7655033  61.3752913  64.9479403  24.8197343
  60.9709913  64.2356653  24.3243243  61.4616033  64.6032643  25.7085383
  61.8434613  68.6346963  26.9836553  61.5462903  68.0292433  26.3044333
  62.7934433  68.6724273  26.8725913  60.0881533  61.7222613  28.5996383
  60.6396123  61.8317953  27.8249633  60.6025043  62.0960213  29.3151613
  60.9353043  68.3728653  33.6344353  60.0381573  68.5968623  33.8817753
  60.9605913  68.4963593  32.6855753  67.9758263  65.2221773  19.5485613
  68.4151543  64.3844203  19.4023433  68.6886683  65.8551173  19.6349753
  59.7624263  65.2441973  32.2101723  59.6232033  66.1164773  32.5789123
  58.8805623  64.9014783  32.0649663  66.0853643  70.1617843  23.5166853
  66.5249553  70.9042173  23.1022243  66.0240533  70.4044413  24.4405813
  58.0757543  63.8424383  22.3203993  57.9555143  64.5686473  21.7085263
  57.7658433  63.0727293  21.8431903  55.7142913  67.0139523  28.1272633
  55.7923333  67.1488293  27.1828353  56.3284593  66.3055413  28.3200753
  56.9590543  68.7139713  24.5378813  56.5518623  68.8554303  23.6832413
  57.8503553  68.4299873  24.3350023  68.4549953  70.6574523  19.4327863
  67.7615113  70.6551813  18.7730143  69.1972813  70.2333843  19.0022033
  55.7702433  68.0553693  30.6667093  55.9333473  67.5859053  29.8486463
  56.2354883  67.5477253  31.3315933  60.5421203  57.1859453  25.7027663
  60.0989353  57.9668993  25.3712183  61.1006193  57.5089343  26.4098603
  64.8291013  60.0527973  31.3062983  64.3670383  60.2610993  32.1182923
  64.4269123  59.2387323  31.0033653  69.8295523  61.2736923  32.4359643
  68.9789113  60.9742673  32.7568713  69.6697313  61.5178933  31.5243463
  66.9245233  62.7738673  34.5358433  67.2498643  61.9402423  34.1960663
  67.7125563  63.2967193  34.6836763  63.6580023  56.8070153  20.5833493
  63.0334203  56.8030023  21.3086803  63.5710143  55.9401113  20.1869463
  62.5797103  57.7306783  27.5617263  62.8769433  58.6369613  27.4809283
  63.1282663  57.2425563  26.9476833  60.3335423  62.3093023  23.4308913
  60.1076343  62.0930193  24.3355533  59.5527953  62.7421483  23.0854883
  67.5633183  62.3156393  22.0299563  66.9642073  63.0392193  21.8463183
  68.1112793  62.2533173  21.2476013  62.7734633  63.2078603  34.0969183
  62.6778233  62.2673333  33.9469583  63.6166613  63.4293673  33.7017253
  66.1698053  60.9519933  24.0602843  66.5627623  61.2692133  23.2471533
  66.5314903  60.0731813  24.1747363  57.9045173  59.6192273  32.2502963
  57.5108563  60.4667483  32.4575743  57.2163573  58.9818643  32.4411603
  64.4790223  59.7027243  35.3199703  63.7888543  59.5099443  35.9545793
  65.2222523  59.9861883  35.8524003  55.2062223  57.5420733  26.2833043
  54.9175273  58.1123593  26.9958023  55.9507983  57.0625183  26.6464273
  55.3932453  61.4840853  17.4935763  55.3107123  62.4271613  17.6350753
  55.0415513  61.3415763  16.6148113  66.7553193  63.5425683  28.1553623
  66.0234313  64.0512493  28.5043723  66.3577533  62.7255663  27.8542403
  63.1930583  60.2179883  26.5606113  63.1966643  59.7769833  25.7110653
  64.0881703  60.5397213  26.6677933  59.0432963  60.1006373  25.5200323
  58.7033013  60.5781603  26.2767373  58.2810283  59.6471493  25.1601423
  63.2550733  61.2191963  19.5512873  63.3763553  61.1778443  20.4998693
  62.8699243  62.0816113  19.3959603  67.2179103  58.9959363  27.5676563
  67.2351843  59.4468013  28.4118413  66.9694683  58.0965003  27.7810003
  62.2672233  63.5293103  18.9496173  61.6989133  63.0811353  18.3232083
  62.9761233  63.8885883  18.4161323  70.6449853  56.4091543  33.4062943
  70.9695623  55.6781203  33.9320923  70.6806363  56.0905183  32.5043933
  57.3441413  67.4305123  32.8262903  56.9596203  66.7898793  33.4245863
  57.6553603  68.1341243  33.3957633  63.4938553  64.2781663  28.3071523
  63.8608683  63.8040233  29.0532863  63.3043613  65.1523233  28.6479863
  56.3579043  59.0225353  24.4364993  56.0725963  58.6581023  25.2743613
  56.2957903  58.2905813  23.8228133  61.2837923  63.3190303  30.6255733
  60.9794993  64.1982283  30.8506093  62.2384383  63.3790093  30.6613173
  59.8119713  67.5251293  21.2222583  59.0381973  66.9848913  21.0621303
  60.5414343  67.0057903  20.8840343  66.0317633  57.9154613  21.1578363
  65.2182243  57.4167783  21.0823673  65.8379583  58.7552863  20.7414713
  65.9526493  66.5925713  32.9017973  65.8863803  65.6721383  32.6475563
  65.3231633  66.6901153  33.6162613  68.7466023  62.2874263  19.4540523
  69.6345643  62.5991493  19.2791863  68.7171113  61.4146513  19.0621103
  59.8557113  67.1931673  24.8601393  60.3735783  66.3899933  24.8058283
  59.4041133  67.1310813  25.7018223  64.7426613  68.4597953  20.1328693
  65.0842313  69.2040183  19.6372013  63.9139323  68.7729073  20.4953523
  57.3401653  64.1593043  31.7727093  56.9816593  64.8246893  32.3600433
  57.0456213  63.3276593  32.1439713  60.5414773  64.6177283  34.6566643
  60.2414913  64.7634463  33.7594463  61.3126013  64.0582573  34.5640033
  65.8843223  69.4146283  32.6521773  65.8987763  68.4827243  32.4340683
  65.1768323  69.5006043  33.2911543  67.6254023  67.7813793  25.4974203
  67.9777843  67.1841923  24.8375573  66.7416353  67.4558023  25.6682453
  63.7117303  68.5411483  22.9044613  64.3988433  69.0880693  23.2852203
  62.9249723  69.0852213  22.9394223  55.8509703  64.1584303  18.3961693
  56.7204553  64.4409103  18.6797613  55.3600023  64.9720173  18.2810503
  63.0144513  65.5457513  22.5169973  63.4707293  66.3562763  22.7430163
  62.6632723  65.2280653  23.3488463  65.3177123  71.0563853  29.7462273
  65.9619343  71.2623233  30.4235693  65.6806563  70.2952253  29.2933123
  58.9156293  55.8895163  22.9892493  58.7870923  55.8813063  23.9377413
  58.0918313  56.2278253  22.6383503  66.5909203  69.0596203  28.4639723
  67.2331433  68.3589363  28.5771893  67.1158553  69.8394643  28.2836613
  70.4364923  69.3444823  18.1878863  70.2102503  68.6275263  18.7803503
  70.0461123  69.0957263  17.3500613  68.3646823  69.8591103  31.6675783
  68.7003063  70.4457793  32.3453703  67.4447163  69.7283813  31.8973573
  55.9150223  57.6486283  32.4499193  55.2008743  57.8483203  33.0551803
  56.3345263  56.8725853  32.8213993  70.0181173  67.2616763  19.8493023
  69.7302873  67.7229453  20.6370903  70.8133343  66.8014533  20.1177243
  64.1935403  69.9082433  34.8363843  63.8732273  69.1891673  35.3809533
  63.5193763  70.5837503  34.9099903  57.8356213  65.9757773  20.5243753
  57.2284163  66.7156673  20.5339053  58.3105563  66.0657133  19.6981953
  67.4089003  60.1408593  30.2000643  67.7769823  59.3203803  30.5280213
  66.5487203  60.2010483  30.6156293  70.7751033  59.0965533  21.0088203
  70.1464193  59.2011203  20.2946433  70.2802953  59.3162313  21.7982083
  65.2209173  70.8171123  18.4422183  65.3221153  70.6135113  17.5124163
  64.3210913  70.5629403  18.6469963  62.7435063  61.3751483  22.4246083
  62.0351213  61.8437823  22.8659693  63.0279543  60.7173493  23.0591273
  64.3690993  62.7948183  30.4238613  64.8676243  63.2694003  31.0890463
  64.5113943  61.8711703  30.6308643  66.7750493  58.1002143  23.8641873
  66.6518273  58.1188273  22.9151383  67.7235053  58.1481083  23.9840273
  60.9470083  59.6836563  19.7996793  61.7960613  60.1206713  19.7336983
  60.5801353  59.9956823  20.6268853  69.8679863  64.2549323  24.7128363
  68.9270003  64.2699553  24.8876053  70.1823933  63.4685283  25.1588663
  59.8461503  65.9368923  18.2732323  60.6124773  65.8250283  18.8357753
  59.9236193  65.2406893  17.6209093  58.5408263  63.3693993  18.9565213
  58.6211853  62.4221503  19.0682613  59.4328013  63.7000873  19.0625873
  56.2268453  69.5862953  21.9341263  55.3008233  69.8284093  21.9246673
  56.6924883  70.4137213  21.8126013  67.1845883  68.8115323  35.1960743
  66.5784043  68.8346923  34.4556493  66.8799993  68.0798363  35.7327993
  56.0679063  65.1908913  34.1921383  56.5718083  64.6116193  34.7637613
  55.3286483  65.4749143  34.7297753  62.9702683  67.9123103  17.7467673
  62.8653323  67.2975453  18.4729053  62.8026903  67.3888993  16.9630683
  63.1217003  66.5979903  33.7256903  62.3562673  67.1664903  33.6411573
  63.3032963  66.3056113  32.8325133  66.2105413  66.9743133  18.3509663
  65.6615513  67.4212433  18.9952403  66.8324673  66.4692383  18.8747333
  70.2640353  68.3285233  34.2831923  71.0049823  68.6660993  33.7799383
  69.5013033  68.4977293  33.7301693  58.1002143  63.3338503  35.0871453
  58.1407483  63.0352373  35.9956683  58.9547643  63.7346113  34.9278973
  61.8780533  65.9334053  20.2474963  62.2996953  65.7673923  21.0906353
  62.0031373  65.1234283  19.7530103  60.0407953  61.9130603  33.0545943
  59.5104413  61.4221553  32.4269283  60.7096023  62.3414803  32.5203873
  64.3908173  64.9571663  17.4952063  64.9113833  64.2420683  17.1293213
  65.0376573  65.5957533  17.7952573  68.9386013  66.3800063  32.8187133
  69.3527033  66.5345143  33.6677553  68.0037013  66.5055283  32.9812913
  69.4108183  63.7196223  34.8226283  69.9928953  62.9648543  34.7346763
  69.5869953  64.2503663  34.0457763  60.5280253  58.8792973  33.1343233
  60.4337123  58.2613723  32.4094103  59.9477643  59.6059263  32.9073143
  63.2941693  57.4366213  30.1670623  62.8458993  57.4590473  29.3216173
  62.6606893  57.0385233  30.7640923  63.7001243  66.3320543  30.7883063
  64.1189353  67.1753273  30.6159303  62.7809873  66.4692583  30.5589843
  66.0365143  64.0636723  32.1720903  66.1561353  63.4677863  32.9115743
  66.8959143  64.1006413  31.7522203  68.3753043  64.6173913  30.7483413
  67.8488263  65.1416533  30.1448553  68.7184383  65.2501303  31.3793143
  60.7739433  62.0067283  17.1933123  60.5728493  61.1434643  17.5546463
  60.6031483  61.9200643  16.2554723  62.8033913  60.6058073  33.4296723
  63.3933603  60.2973923  34.1174543  61.9854153  60.1337823  33.5856623
  67.6227343  60.2223883  33.6629743  66.9342863  59.5605423  33.5979733
  68.3433363  59.7762153  34.1078203  68.2527743  56.8175513  19.7220003
  68.5330033  55.9743413  20.0779423  67.4793473  57.0498623  20.2358753
  59.5722233  59.1067903  17.1811003  59.8748133  59.1135333  16.2730153
  60.3116823  58.7565763  17.6778663  62.7907163  58.0502523  18.1667203
  62.4429163  57.3726513  17.5869653  62.9919933  57.5892033  18.9810593
  58.5952363  68.4110323  18.0140803  59.0327233  68.9539993  18.6698383
  59.0800093  67.5857273  18.0237143  55.8098163  71.1999353  25.4661063
  56.1401173  70.3320413  25.2339703  56.2389163  71.4057873  26.2966023
  60.4060083  69.5308363  23.1263033  60.1055623  69.4073333  24.0266943
  60.2997573  68.6716953  22.7178763  56.1312803  64.5790173  24.5631573
  55.4761643  64.3101813  23.9191273  56.9690753  64.4694653  24.1133553
  70.6202193  68.2938923  30.5896163  69.8062033  68.7236083  30.8521953
  71.0276393  68.9057333  29.9765213  69.0803243  59.3731463  18.7850063
  69.4988123  59.1862443  17.9446723  68.7739303  58.5210513  19.0952993
  57.1688733  64.9642743  29.1034913  57.5361773  64.8770143  29.9830933
  56.5999553  64.2009293  29.0041773  56.7204733  61.8751833  33.0093333
  55.8260783  61.8418593  33.3487043  57.2602283  62.0738623  33.7744583
  55.3450883  61.7889103  20.5056903  54.4414963  62.0519303  20.3308563
  55.8291503  62.0600273  19.7256863  57.8878093  60.8454643  18.4151283
  58.5969793  60.4237863  17.9298563  57.1718033  60.9129873  17.7834633
  57.5352253  56.8993973  17.4553933  58.2580383  57.4402913  17.7735153
  57.8076773  56.6257393  16.5795473  57.2244443  56.1500163  27.3576553
  57.8720633  55.5997543  26.9171713  57.6446283  56.4043313  28.1792363
  56.9776443  56.3055833  30.1001873  56.6291263  56.7619653  30.8660053
  56.6464143  55.4112963  30.1824303  58.5840813  69.4775433  34.2655063
  58.5410443  69.1068343  35.1469523  58.7151823  70.4153003  34.4056883
  62.2846843  71.0335023  29.8664783  62.0438203  71.3009583  28.9795303
  63.2249483  71.2040753  29.9215643  64.4901263  57.4967713  33.6221293
  64.4290153  58.0889543  34.3716703  65.4301643  57.3893673  33.4771553
  67.1275823  57.1537773  33.2613583  67.7416233  57.4717063  32.5994663
  67.6725383  56.6686363  33.8809443  57.6497083  55.8332033  33.3752643
  58.1980073  55.6520083  32.6118753  57.7152393  55.0426143  33.9108953
  67.8683863  55.7169913  29.5882873  66.9943703  56.0505023  29.3855803
  67.7594613  55.2443093  30.4134743  68.7755843  57.9240783  30.9724593
  68.4469203  57.1092543  30.5926323  69.7238143  57.8810593  30.8490283
  58.0541073  69.7896063  30.3360883  57.3275133  69.1701353  30.2686833
  58.1150223  70.1836673  29.4658963  65.6158683  56.6339753  28.5275783
  64.8330473  57.1085253  28.8072543  65.3221613  55.7294583  28.4188963
  70.1679753  57.3362853  26.5724873  70.6087843  57.2807953  25.7246473
  69.8987343  58.2520863  26.6435053  56.9599093  56.9387233  21.0489503
  57.7178453  57.0516113  20.4753533  56.4976263  57.7756433  21.0032933
  63.5012903  59.0526503  24.0391813  62.6887413  58.6783393  23.6987693
  64.0054543  58.2971583  24.3413003  68.0037883  55.7168953  25.2774883
  68.6067253  56.2889163  25.7523403  67.2630873  56.2808393  25.0548783
  59.3324243  57.4651283  19.5891473  59.8617003  56.6781083  19.4599423
  59.9652563  58.1442473  19.8227003  61.5262083  57.2026423  22.6436863
  60.8964823  56.5013733  22.8106993  60.9867223  57.9630553  22.4270023
  61.6517643  56.4810403  35.0789353  61.3701913  56.9844003  34.3150173
  62.0337343  55.6832153  34.7131483  59.7041533  69.8650793  19.8703363
  59.0750413  70.3335893  20.4189193  59.8189363  69.0200013  20.3049553
  68.2533103  55.8963983  35.6569823  68.1398553  56.2158593  36.5521343
  69.0702843  56.2976493  35.3607103  67.1591253  63.9156453   6.0204563
  67.0785303  63.0011063   5.7496273  66.7455673  64.4123523   5.3144273
  65.2909293  65.6935473   7.9013833  64.5151393  65.2135913   8.1912403
  65.9422223  65.0141123   7.7269993  59.3075123  66.0055283   8.7789593
  58.4760003  65.7503993   9.1786103  59.9156103  66.0766053   9.5147513
  69.3116723  70.0995663   6.6812963  68.8498253  69.3282903   7.0100133
  70.1242273  70.1261733   7.1865413  59.2876383  70.0395373   8.9747613
  59.5904423  69.1493113   8.7957833  60.0319973  70.5965593   8.7469863
  55.6800083  63.5662823   8.4471683  56.2516193  62.7985023   8.4475323
  55.6801623  63.8651583   7.5378293  64.7318283  68.3692663   7.9083993
  64.6626563  67.4282603   7.7473123  65.4938143  68.4594073   8.4806563
  56.9224953  58.9747183  10.2340613  56.7427793  58.0772933  10.5143373
  56.5205033  59.5219053  10.9087563  65.7623453  61.1763043   8.1352923
  66.1388273  60.3034923   8.0226593  65.6642963  61.5121743   7.2443363
  59.8928463  59.5488673   3.5970363  59.9995213  60.4492403   3.9039123
  58.9820823  59.5006643   3.3065013  69.5447573  58.6713483   5.0681263
  70.3657193  58.1810053   5.1106743  69.5781653  59.2611143   5.8213103
  57.5411623  61.4707683   8.8422953  58.2221733  61.7346053   9.4610353
  57.2259673  60.6308553   9.1760963  61.7336193  62.5175043   7.9295543
  62.2414413  63.0156013   8.5700563  62.2649433  61.7410243   7.7534903
  60.0172293  57.1573603  12.1958963  60.0190733  57.6745993  11.3904863
  59.1876603  56.6803783  12.1728893  66.4043383  67.2692913   3.6948863
  65.7860653  67.7342363   3.1311583  66.9166633  67.9620393   4.1118373
  61.2675143  66.7968783  10.3732463  60.9344523  67.4237703  11.0153533
  61.4441823  67.3230663   9.5934133  69.7809053  60.6113863   7.8408803
  69.0764623  60.8998753   8.4211913  70.1421213  61.4213973   7.4808363
  59.6987623  58.8683563  10.2029413  60.0404433  59.7125613   9.9083283
  58.7603433  59.0167303  10.3194753  60.4794243  68.7649583  12.1881643
  61.0968243  69.4400663  11.9066093  59.6187363  69.1737563  12.0969143
  63.3815513  56.3565833   6.5274003  63.6890493  55.8012723   5.8109503
  62.4516213  56.4910293   6.3446993  70.2275993  68.7949343   3.9071633
  70.1172323  67.8523673   4.0321053  70.2244243  69.1564983   4.7934393
  68.3316013  66.9762963  10.1464073  68.7484803  66.7623073   9.3117533
  69.0555833  67.2335753  10.7172693  65.7696273  64.4214663   3.2634123
  64.8425553  64.3552043   3.4922593  65.9221093  65.3594793   3.1489363
  69.7993563  65.9834963   3.7669373  69.1805983  65.6454513   3.1195673
  69.7818013  65.3394723   4.4748563  69.2420123  62.1619503  11.1835183
  68.8291303  62.9873213  11.4375173  68.5096073  61.5764543  10.9911543
  61.3752913  64.9479403   6.0453853  60.9709913  64.2356653   5.5499753
  61.4616033  64.6032643   6.9341893  61.8434613  68.6346963   8.2093063
  61.5462903  68.0292433   7.5300843  62.7934433  68.6724273   8.0982423
  60.0881533  61.7222613   9.8252893  60.6396123  61.8317953   9.0506143
  60.6025043  62.0960213  10.5408123  60.9353043  68.3728653  14.8600863
  60.0381573  68.5968623  15.1074263  60.9605913  68.4963593  13.9112263
  59.7624263  65.2441973  13.4358233  59.6232033  66.1164773  13.8045633
  58.8805623  64.9014783  13.2906173  66.0853643  70.1617843   4.7423363
  66.5249553  70.9042173   4.3278753  66.0240533  70.4044413   5.6662323
  58.0757543  63.8424383   3.5460503  57.9555143  64.5686473   2.9341773
  57.7658433  63.0727293   3.0688413  55.7142913  67.0139523   9.3529143
  55.7923333  67.1488293   8.4084863  56.3284593  66.3055413   9.5457263
  56.9590543  68.7139713   5.7635323  56.5518623  68.8554303   4.9088923
  57.8503553  68.4299873   5.5606533  55.7702433  68.0553693  11.8923603
  55.9333473  67.5859053  11.0742973  56.2354883  67.5477253  12.5572443
  60.5421203  57.1859453   6.9284173  60.0989353  57.9668993   6.5968693
  61.1006193  57.5089343   7.6355113  64.8291013  60.0527973  12.5319493
  64.3670383  60.2610993  13.3439433  64.4269123  59.2387323  12.2290163
  69.8295523  61.2736923  13.6616153  68.9789113  60.9742673  13.9825223
  69.6697313  61.5178933  12.7499973  66.9245233  62.7738673  15.7614943
  67.2498643  61.9402423  15.4217173  67.7125563  63.2967193  15.9093273
  62.5797103  57.7306783   8.7873773  62.8769433  58.6369613   8.7065793
  63.1282663  57.2425563   8.1733343  60.3335423  62.3093023   4.6565423
  60.1076343  62.0930193   5.5612043  59.5527953  62.7421483   4.3111393
  67.5633183  62.3156393   3.2556073  66.9642073  63.0392193   3.0719693
  68.1112793  62.2533173   2.4732523  62.7734633  63.2078603  15.3225693
  62.6778233  62.2673333  15.1726093  63.6166613  63.4293673  14.9273763
  66.1698053  60.9519933   5.2859353  66.5627623  61.2692133   4.4728043
  66.5314903  60.0731813   5.4003873  57.9045173  59.6192273  13.4759473
  57.5108563  60.4667483  13.6832253  57.2163573  58.9818643  13.6668113
  64.4790223  59.7027243  16.5456213  63.7888543  59.5099443  17.1802303
  65.2222523  59.9861883  17.0780513  55.2062223  57.5420733   7.5089553
  54.9175273  58.1123593   8.2214533  55.9507983  57.0625183   7.8720783
  66.7553193  63.5425683   9.3810133  66.0234313  64.0512493   9.7300233
  66.3577533  62.7255663   9.0798913  63.1930583  60.2179883   7.7862623
  63.1966643  59.7769833   6.9367163  64.0881703  60.5397213   7.8934443
  59.0432963  60.1006373   6.7456833  58.7033013  60.5781603   7.5023883
  58.2810283  59.6471493   6.3857933  67.2179103  58.9959363   8.7933073
  67.2351843  59.4468013   9.6374923  66.9694683  58.0965003   9.0066513
  70.6449853  56.4091543  14.6319453  70.9695623  55.6781203  15.1577433
  70.6806363  56.0905183  13.7300443  57.3441413  67.4305123  14.0519413
  56.9596203  66.7898793  14.6502373  57.6553603  68.1341243  14.6214143
  63.4938553  64.2781663   9.5328033  63.8608683  63.8040233  10.2789373
  63.3043613  65.1523233   9.8736373  56.3579043  59.0225353   5.6621503
  56.0725963  58.6581023   6.5000123  56.2957903  58.2905813   5.0484643
  61.2837923  63.3190303  11.8512243  60.9794993  64.1982283  12.0762603
  62.2384383  63.3790093  11.8869683  59.8119713  67.5251293   2.4479093
  59.0381973  66.9848913   2.2877813  60.5414343  67.0057903   2.1096853
  66.0317633  57.9154613   2.3834873  65.2182243  57.4167783   2.3080183
  65.8379583  58.7552863   1.9671223  65.9526493  66.5925713  14.1274483
  65.8863803  65.6721383  13.8732073  65.3231633  66.6901153  14.8419123
  59.8557113  67.1931673   6.0857903  60.3735783  66.3899933   6.0314793
  59.4041133  67.1310813   6.9274733  57.3401653  64.1593043  12.9983603
  56.9816593  64.8246893  13.5856943  57.0456213  63.3276593  13.3696223
  60.5414773  64.6177283  15.8823153  60.2414913  64.7634463  14.9850973
  61.3126013  64.0582573  15.7896543  65.8843223  69.4146283  13.8778283
  65.8987763  68.4827243  13.6597193  65.1768323  69.5006043  14.5168053
  67.6254023  67.7813793   6.7230713  67.9777843  67.1841923   6.0632083
  66.7416353  67.4558023   6.8938963  63.7117303  68.5411483   4.1301123
  64.3988433  69.0880693   4.5108713  62.9249723  69.0852213   4.1650733
  63.0144513  65.5457513   3.7426483  63.4707293  66.3562763   3.9686673
  62.6632723  65.2280653   4.5744973  65.3177123  71.0563853  10.9718783
  65.9619343  71.2623233  11.6492203  65.6806563  70.2952253  10.5189633
  58.9156293  55.8895163   4.2149003  58.7870923  55.8813063   5.1633923
  58.0918313  56.2278253   3.8640013  66.5909203  69.0596203   9.6896233
  67.2331433  68.3589363   9.8028403  67.1158553  69.8394643   9.5093123
  68.3646823  69.8591103  12.8932293  68.7003063  70.4457793  13.5710213
  67.4447163  69.7283813  13.1230083  55.9150223  57.6486283  13.6755703
  55.2008743  57.8483203  14.2808313  56.3345263  56.8725853  14.0470503
  64.1935403  69.9082433  16.0620353  63.8732273  69.1891673  16.6066043
  63.5193763  70.5837503  16.1356413  67.4089003  60.1408593  11.4257153
  67.7769823  59.3203803  11.7536723  66.5487203  60.2010483  11.8412803
  62.7435063  61.3751483   3.6502593  62.0351213  61.8437823   4.0916203
  63.0279543  60.7173493   4.2847783  64.3690993  62.7948183  11.6495123
  64.8676243  63.2694003  12.3146973  64.5113943  61.8711703  11.8565153
  66.7750493  58.1002143   5.0898383  66.6518273  58.1188273   4.1407893
  67.7235053  58.1481083   5.2096783  69.8679863  64.2549323   5.9384873
  68.9270003  64.2699553   6.1132563  70.1823933  63.4685283   6.3845173
  56.2268453  69.5862953   3.1597773  55.3008233  69.8284093   3.1503183
  56.6924883  70.4137213   3.0382523  67.1845883  68.8115323  16.4217253
  66.5784043  68.8346923  15.6813003  66.8799993  68.0798363  16.9584503
  56.0679063  65.1908913  15.4177893  56.5718083  64.6116193  15.9894123
  55.3286483  65.4749143  15.9554263  63.1217003  66.5979903  14.9513413
  62.3562673  67.1664903  14.8668083  63.3032963  66.3056113  14.0581643
  70.2640353  68.3285233  15.5088433  71.0049823  68.6660993  15.0055893
  69.5013033  68.4977293  14.9558203  58.1002143  63.3338503  16.3127963
  58.1407483  63.0352373  17.2213193  58.9547643  63.7346113  16.1535483
  60.0407953  61.9130603  14.2802453  59.5104413  61.4221553  13.6525793
  60.7096023  62.3414803  13.7460383  68.9386013  66.3800063  14.0443643
  69.3527033  66.5345143  14.8934063  68.0037013  66.5055283  14.2069423
  69.4108183  63.7196223  16.0482793  69.9928953  62.9648543  15.9603273
  69.5869953  64.2503663  15.2714273  60.5280253  58.8792973  14.3599743
  60.4337123  58.2613723  13.6350613  59.9477643  59.6059263  14.1329653
  63.2941693  57.4366213  11.3927133  62.8458993  57.4590473  10.5472683
  62.6606893  57.0385233  11.9897433  63.7001243  66.3320543  12.0139573
  64.1189353  67.1753273  11.8415813  62.7809873  66.4692583  11.7846353
  66.0365143  64.0636723  13.3977413  66.1561353  63.4677863  14.1372253
  66.8959143  64.1006413  12.9778713  68.3753043  64.6173913  11.9739923
  67.8488263  65.1416533  11.3705063  68.7184383  65.2501303  12.6049653
  62.8033913  60.6058073  14.6553233  63.3933603  60.2973923  15.3431053
  61.9854153  60.1337823  14.8113133  67.6227343  60.2223883  14.8886253
  66.9342863  59.5605423  14.8236243  68.3433363  59.7762153  15.3334713
  55.8098163  71.1999353   6.6917573  56.1401173  70.3320413   6.4596213
  56.2389163  71.4057873   7.5222533  60.4060083  69.5308363   4.3519543
  60.1055623  69.4073333   5.2523453  60.2997573  68.6716953   3.9435273
  56.1312803  64.5790173   5.7888083  55.4761643  64.3101813   5.1447783
  56.9690753  64.4694653   5.3390063  70.6202193  68.2938923  11.8152673
  69.8062033  68.7236083  12.0778463  71.0276393  68.9057333  11.2021723
  57.1688733  64.9642743  10.3291423  57.5361773  64.8770143  11.2087443
  56.5999553  64.2009293  10.2298283  56.7204733  61.8751833  14.2349843
  55.8260783  61.8418593  14.5743553  57.2602283  62.0738623  15.0001093
  57.2244443  56.1500163   8.5833063  57.8720633  55.5997543   8.1428223
  57.6446283  56.4043313   9.4048873  56.9776443  56.3055833  11.3258383
  56.6291263  56.7619653  12.0916563  56.6464143  55.4112963  11.4080813
  58.5840813  69.4775433  15.4911573  58.5410443  69.1068343  16.3726033
  58.7151823  70.4153003  15.6313393  62.2846843  71.0335023  11.0921293
  62.0438203  71.3009583  10.2051813  63.2249483  71.2040753  11.1472153
  64.4901263  57.4967713  14.8477803  64.4290153  58.0889543  15.5973213
  65.4301643  57.3893673  14.7028063  67.1275823  57.1537773  14.4870093
  67.7416233  57.4717063  13.8251173  67.6725383  56.6686363  15.1065953
  57.6497083  55.8332033  14.6009153  58.1980073  55.6520083  13.8375263
  57.7152393  55.0426143  15.1365463  67.8683863  55.7169913  10.8139383
  66.9943703  56.0505023  10.6112313  67.7594613  55.2443093  11.6391253
  68.7755843  57.9240783  12.1981103  68.4469203  57.1092543  11.8182833
  69.7238143  57.8810593  12.0746793  58.0541073  69.7896063  11.5617393
  57.3275133  69.1701353  11.4943343  58.1150223  70.1836673  10.6915473
  65.6158683  56.6339753   9.7532293  64.8330473  57.1085253  10.0329053
  65.3221613  55.7294583   9.6445473  70.1679753  57.3362853   7.7981383
  70.6087843  57.2807953   6.9502983  69.8987343  58.2520863   7.8691563
  63.5012903  59.0526503   5.2648323  62.6887413  58.6783393   4.9244203
  64.0054543  58.2971583   5.5669513  68.0037883  55.7168953   6.5031393
  68.6067253  56.2889163   6.9779913  67.2630873  56.2808393   6.2805293
  61.5262083  57.2026423   3.8693373  60.8964823  56.5013733   4.0363503
  60.9867223  57.9630553   3.6526533  61.6517643  56.4810403  16.3045863
  61.3701913  56.9844003  15.5406683  62.0337343  55.6832153  15.9387993
  68.2533103  55.8963983  16.8826333  68.1398553  56.2158593  17.7777853
  69.0702843  56.2976493  16.5863613  67.1591253  45.1412963  62.3435033
  67.0785303  44.2267573  62.0726743  66.7455673  45.6380033  61.6374743
  65.2909293  46.9191983  64.2244303  64.5151393  46.4392423  64.5142873
  65.9422223  46.2397633  64.0500463  59.3075123  47.2311793  65.1020063
  58.4760003  46.9760503  65.5016573  59.9156103  47.3022563  65.8377983
  69.3116723  51.3252173  63.0043433  68.8498253  50.5539413  63.3330603
  70.1242273  51.3518243  63.5095883  59.2876383  51.2651883  65.2978083
  59.5904423  50.3749623  65.1188303  60.0319973  51.8222103  65.0700333
  57.7167073  42.1913683  58.8862453  56.8283773  42.5329653  58.7842333
  58.0008263  41.9914003  57.9943283  55.6800083  44.7919333  64.7702153
  56.2516193  44.0241533  64.7705793  55.6801623  45.0908093  63.8608763
  65.5380033  53.6110183  62.6247423  64.9191473  54.0667683  62.0541863
  66.3931813  53.7661643  62.2237123  64.7318283  49.5949173  64.2314463
  64.6626563  48.6539113  64.0703593  65.4938143  49.6850583  64.8037033
  56.9224953  40.2003693  66.5571083  56.7427793  39.3029443  66.8373843
  56.5205033  40.7475563  67.2318033  65.7623453  42.4019553  64.4583393
  66.1388273  41.5291433  64.3457063  65.6642963  42.7378253  63.5673833
  59.8928463  40.7745183  59.9200833  59.9995213  41.6748913  60.2269593
  58.9820823  40.7263153  59.6295483  69.5447573  39.8969993  61.3911733
  70.3657193  39.4066563  61.4337213  69.5781653  40.4867653  62.1443573
  57.5411623  42.6964193  65.1653423  58.2221733  42.9602563  65.7840823
  57.2259673  41.8565063  65.4991433  61.7336193  43.7431553  64.2526013
  62.2414413  44.2412523  64.8931033  62.2649433  42.9666753  64.0765373
  60.0172293  38.3830113  68.5189433  60.0190733  38.9002503  67.7135333
  59.1876603  37.9060293  68.4959363  66.4043383  48.4949423  60.0179333
  65.7860653  48.9598873  59.4542053  66.9166633  49.1876903  60.4348843
  61.2675143  48.0225293  66.6962933  60.9344523  48.6494213  67.3384003
  61.4441823  48.5487173  65.9164603  69.7809053  41.8370373  64.1639273
  69.0764623  42.1255263  64.7442383  70.1421213  42.6470483  63.8038833
  59.6987623  40.0940073  66.5259883  60.0404433  40.9382123  66.2313753
  58.7603433  40.2423813  66.6425223  60.4794243  49.9906093  68.5112113
  61.0968243  50.6657173  68.2296563  59.6187363  50.3994073  68.4199613
  55.7726583  49.1805953  57.3918963  55.3954563  49.6693053  56.6603863
  56.0299653  49.8531233  58.0225493  63.3815513  37.5822343  62.8504473
  63.6890493  37.0269233  62.1339973  62.4516213  37.7166803  62.6677463
  68.9330573  53.2989633  65.1411933  68.9457733  52.8951923  64.2734193
  68.3805793  54.0736923  65.0373363  70.2275993  50.0205853  60.2302103
  70.1172323  49.0780183  60.3551523  70.2244243  50.3821493  61.1164863
  68.3316013  48.2019473  66.4694543  68.7484803  47.9879583  65.6348003
  69.0555833  48.4592263  67.0403163  65.7696273  45.6471173  59.5864593
  64.8425553  45.5808553  59.8153063  65.9221093  46.5851303  59.4719833
  65.7565353  41.9188173  56.5831753  64.8169023  42.0802133  56.6684213
  66.0748613  42.6373853  56.0367743  69.7993563  47.2091473  60.0899843
  69.1805983  46.8711023  59.4426143  69.7818013  46.5651233  60.7979033
  69.2420123  43.3876013  67.5065653  68.8291303  44.2129723  67.7605643
  68.5096073  42.8021053  67.3142013  61.3752913  46.1735913  62.3684323
  60.9709913  45.4613163  61.8730223  61.4616033  45.8289153  63.2572363
  61.8434613  49.8603473  64.5323533  61.5462903  49.2548943  63.8531313
  62.7934433  49.8980783  64.4212893  60.0881533  42.9479123  66.1483363
  60.6396123  43.0574463  65.3736613  60.6025043  43.3216723  66.8638593
  69.9320223  53.4335343  68.1946633  69.4550783  54.2407533  68.0019243
  69.2482013  52.7813673  68.3472843  67.9758263  46.4478283  57.0972593
  68.4151543  45.6100713  56.9510413  68.6886683  47.0807683  57.1836733
  66.0853643  51.3874353  61.0653833  66.5249553  52.1298683  60.6509223
  66.0240533  51.6300923  61.9892793  58.0757543  45.0680893  59.8690973
  57.9555143  45.7942983  59.2572243  57.7658433  44.2983803  59.3918883
  55.7142913  48.2396033  65.6759613  55.7923333  48.3744803  64.7315333
  56.3284593  47.5311923  65.8687733  56.9590543  49.9396223  62.0865793
  56.5518623  50.0810813  61.2319393  57.8503553  49.6556383  61.8837003
  66.7769423  54.0888133  68.9932843  67.2914093  53.9996143  69.7955273
  65.9338503  54.4347833  69.2860753  68.7523823  54.3743473  58.4216843
  68.5924963  54.0846413  59.3198673  68.5870533  53.5983603  57.8862073
  61.2312203  54.1542003  60.1988463  61.0554683  53.2377543  59.9856263
  60.3767943  54.5129293  60.4386263  68.4549953  51.8831033  56.9814843
  67.7615113  51.8808323  56.3217123  69.1972813  51.4590353  56.5509013
  68.0199883  53.5093743  61.0563333  68.4756833  52.7283123  61.3701953
  68.3592403  54.2200563  61.6004513  55.7702433  49.2810203  68.2154073
  55.9333473  48.8115563  67.3973443  56.2354883  48.7733763  68.8802913
  60.5421203  38.4115963  63.2514643  60.0989353  39.1925503  62.9199163
  61.1006193  38.7345853  63.9585583  64.8291013  41.2784483  68.8549963
  64.3670383  41.4867503  69.6669903  64.4269123  40.4643833  68.5520633
  63.6580023  38.0326663  58.1320473  63.0334203  38.0286533  58.8573783
  63.5710143  37.1657623  57.7356443  62.5797103  38.9563293  65.1104243
  62.8769433  39.8626123  65.0296263  63.1282663  38.4682073  64.4963813
  60.3335423  43.5349533  60.9795893  60.1076343  43.3186703  61.8842513
  59.5527953  43.9677993  60.6341863  67.5633183  43.5412903  59.5786543
  66.9642073  44.2648703  59.3950163  68.1112793  43.4789683  58.7962993
  66.1698053  42.1776443  61.6089823  66.5627623  42.4948643  60.7958513
  66.5314903  41.2988323  61.7234343  55.2062223  38.7677243  63.8320023
  54.9175273  39.3380103  64.5445003  55.9507983  38.2881693  64.1951253
  55.3932453  42.7097363  55.0422743  55.3107123  43.6528123  55.1837733
  55.0415513  42.5672273  54.1635093  66.7553193  44.7682193  65.7040603
  66.0234313  45.2769003  66.0530703  66.3577533  43.9512173  65.4029383
  63.1930583  41.4436393  64.1093093  63.1966643  41.0026343  63.2597633
  64.0881703  41.7653723  64.2164913  59.0432963  41.3262883  63.0687303
  58.7033013  41.8038113  63.8254353  58.2810283  40.8728003  62.7088403
  63.2550733  42.4448473  57.0999853  63.3763553  42.4034953  58.0485673
  62.8699243  43.3072623  56.9446583  67.2179103  40.2215873  65.1163543
  67.2351843  40.6724523  65.9605393  66.9694683  39.3221513  65.3296983
  62.2672233  44.7549613  56.4983153  61.6989133  44.3067863  55.8719063
  62.9761233  45.1142393  55.9648303  63.4938553  45.5038173  65.8558503
  63.8608683  45.0296743  66.6019843  63.3043613  46.3779743  66.1966843
  56.3579043  40.2481863  61.9851973  56.0725963  39.8837533  62.8230593
  56.2957903  39.5162323  61.3715113  61.2837923  44.5446813  68.1742713
  60.9794993  45.4238793  68.3993073  62.2384383  44.6046603  68.2100153
  59.8119713  48.7507803  58.7709563  59.0381973  48.2105423  58.6108283
  60.5414343  48.2314413  58.4327323  66.0317633  39.1411123  58.7065343
  65.2182243  38.6424293  58.6310653  65.8379583  39.9809373  58.2901693
  68.7466023  43.5130773  57.0027503  69.6345643  43.8248003  56.8278843
  68.7171113  42.6403023  56.6108083  59.8557113  48.4188183  62.4088373
  60.3735783  47.6156443  62.3545263  59.4041133  48.3567323  63.2505203
  64.7426613  49.6854463  57.6815673  65.0842313  50.4296693  57.1858993
  63.9139323  49.9985583  58.0440503  67.6254023  49.0070303  63.0461183
  67.9777843  48.4098433  62.3862553  66.7416353  48.6814533  63.2169433
  63.7117303  49.7667993  60.4531593  64.3988433  50.3137203  60.8339183
  62.9249723  50.3108723  60.4881203  55.8509703  45.3840813  55.9448673
  56.7204553  45.6665613  56.2284593  55.3600023  46.1976683  55.8297483
  63.0144513  46.7714023  60.0656953  63.4707293  47.5819273  60.2917143
  62.6632723  46.4537163  60.8975443  65.3177123  52.2820363  67.2949253
  65.9619343  52.4879743  67.9722673  65.6806563  51.5208763  66.8420103
  58.9156293  37.1151673  60.5379473  58.7870923  37.1069573  61.4864393
  58.0918313  37.4534763  60.1870483  66.5909203  50.2852713  66.0126703
  67.2331433  49.5845873  66.1258873  67.1158553  51.0651153  65.8323593
  70.4364923  50.5701333  55.7365843  70.2102503  49.8531773  56.3290483
  70.0461123  50.3213773  54.8987593  56.2180953  54.5968193  56.5110303
  56.5778593  55.1957533  55.8567573  56.0773293  55.1428083  57.2845333
  70.0181173  48.4873273  57.3980003  69.7302873  48.9485963  58.1857883
  70.8133343  48.0271043  57.6664223  62.2349573  51.9799393  57.3283973
  62.2259673  52.7129083  56.7128483  61.3147933  51.7330973  57.4210933
  57.8356213  47.2014283  58.0730733  57.2284163  47.9413183  58.0826033
  58.3105563  47.2913643  57.2468933  67.4089003  41.3665103  67.7487623
  67.7769823  40.5460313  68.0767193  66.5487203  41.4266993  68.1643273
  70.7751033  40.3222043  58.5575183  70.1464193  40.4267713  57.8433413
  70.2802953  40.5418823  59.3469063  65.2209173  52.0427633  55.9909163
  65.3221153  51.8391623  55.0611143  64.3210913  51.7885913  56.1956943
  62.7435063  42.6007993  59.9733063  62.0351213  43.0694333  60.4146673
  63.0279543  41.9430003  60.6078253  64.3690993  44.0204693  67.9725593
  64.8676243  44.4950513  68.6377443  64.5113943  43.0968213  68.1795623
  66.7750493  39.3258653  61.4128853  66.6518273  39.3444783  60.4638363
  67.7235053  39.3737593  61.5327253  63.8627283  54.5613953  60.6856833
  64.1168783  54.5235343  59.7636203  62.9139763  54.4347283  60.6785083
  60.9470083  40.9093073  57.3483773  61.7960613  41.3463223  57.2823963
  60.5801353  41.2213333  58.1755833  69.8679863  45.4805833  62.2615343
  68.9270003  45.4956063  62.4363033  70.1823933  44.6941793  62.7075643
  59.8461503  47.1625433  55.8219303  60.6124773  47.0506793  56.3844733
  59.9236193  46.4663403  55.1696073  58.5408263  44.5950503  56.5052193
  58.6211853  43.6478013  56.6169593  59.4328013  44.9257383  56.6112853
  59.3422973  54.7445893  63.6086733  60.0785453  54.1961353  63.8795303
  59.7263893  55.6101903  63.4692723  56.2268453  50.8119463  59.4828243
  55.3008233  51.0540603  59.4733653  56.6924883  51.6393723  59.3612993
  62.4525283  53.9176203  55.4312303  63.2453893  54.2065033  54.9794093
  61.9329633  53.4868373  54.7524783  62.9702683  49.1379613  55.2954653
  62.8653323  48.5231963  56.0216033  62.8026903  48.6145503  54.5117663
  66.2105413  48.1999643  55.8996643  65.6615513  48.6468943  56.5439383
  66.8324673  47.6948893  56.4234313  61.8780533  47.1590563  57.7961943
  62.2996953  46.9930433  58.6393333  62.0031373  46.3490793  57.3017083
  64.3908173  46.1828173  55.0439043  64.9113833  45.4677193  54.6780193
  65.0376573  46.8214043  55.3439553  63.2941693  38.6622723  67.7157603
  62.8458993  38.6846983  66.8703153  62.6606893  38.2641743  68.3127903
  63.7001243  47.5577053  68.3370043  64.1189353  48.4009783  68.1646283
  62.7809873  47.6949093  68.1076823  68.3753043  45.8430423  68.2970393
  67.8488263  46.3673043  67.6935533  68.7184383  46.4757813  68.9280123
  60.7739433  43.2323793  54.7420103  60.5728493  42.3691153  55.1033443
  60.6031483  43.1457153  53.8041703  61.5508663  53.8630063  69.4527773
  61.0129753  54.5876123  69.1336473  61.8042623  53.3860403  68.6625113
  68.2527743  38.0432023  57.2706983  68.5330033  37.1999923  57.6266403
  67.4793473  38.2755133  57.7845733  59.5722233  40.3324413  54.7297983
  59.8748133  40.3391843  53.8217133  60.3116823  39.9822273  55.2265643
  62.7907163  39.2759033  55.7154183  62.4429163  38.5983023  55.1356633
  62.9919933  38.8148543  56.5297573  64.9556203  54.2639783  57.3340783
  65.8506993  54.6024753  57.3559543  64.9873833  53.5419193  56.7065063
  58.5952363  49.6366833  55.5627783  59.0327233  50.1796503  56.2185363
  59.0800093  48.8113783  55.5724123  55.8098163  52.4255863  63.0148043
  56.1401173  51.5576923  62.7826683  56.2389163  52.6314383  63.8453003
  60.4060083  50.7564873  60.6750013  60.1055623  50.6329843  61.5753923
  60.2997573  49.8973463  60.2665743  56.2988373  53.2926453  65.7529673
  55.8619363  53.4727253  66.5853823  56.8666053  54.0501073  65.6111393
  56.1312803  45.8046683  62.1118553  55.4761643  45.5358323  61.4678253
  56.9690753  45.6951163  61.6620533  70.6202193  49.5195433  68.1383143
  69.8062033  49.9492593  68.4008933  71.0276393  50.1313843  67.5252193
  69.0803243  40.5987973  56.3337043  69.4988123  40.4118953  55.4933703
  68.7739303  39.7467023  56.6439973  57.1688733  46.1899253  66.6521893
  57.5361773  46.1026653  67.5317913  56.5999553  45.4265803  66.5528753
  55.3450883  43.0145613  58.0543883  54.4414963  43.2775813  57.8795543
  55.8291503  43.2856783  57.2743843  57.8878093  42.0711153  55.9638263
  58.5969793  41.6494373  55.4785543  57.1718033  42.1386383  55.3321613
  57.5352253  38.1250483  55.0040913  58.2580383  38.6659423  55.3222133
  57.8076773  37.8513903  54.1282453  57.2244443  37.3756673  64.9063533
  57.8720633  36.8254053  64.4658693  57.6446283  37.6299823  65.7279343
  56.9776443  37.5312343  67.6488853  56.6291263  37.9876163  68.4147033
  56.6464143  36.6369473  67.7311283  62.2846843  52.2591533  67.4151763
  62.0438203  52.5266093  66.5282283  63.2249483  52.4297263  67.4702623
  58.4228843  53.6494193  68.9339823  57.8289163  53.5178893  69.6729863
  58.4152683  52.8132333  68.4681923  67.8683863  36.9426423  67.1369853
  66.9943703  37.2761533  66.9342783  67.7594613  36.4699603  67.9621723
  68.7755843  39.1497293  68.5211573  68.4469203  38.3349053  68.1413303
  69.7238143  39.1067103  68.3977263  58.0541073  51.0152573  67.8847863
  57.3275133  50.3957863  67.8173813  58.1150223  51.4093183  67.0145943
  61.6586173  53.2297573  64.6697273  62.1751193  52.6184933  64.1445533
  62.3083553  53.7326353  65.1608283  64.3981673  54.1206063  65.4966253
  64.6859483  53.8660363  64.6199263  64.9104893  53.5683423  66.0871823
  65.6158683  37.8596263  66.0762763  64.8330473  38.3341763  66.3559523
  65.3221613  36.9551093  65.9675943  70.1679753  38.5619363  64.1211853
  70.6087843  38.5064463  63.2733453  69.8987343  39.4777373  64.1922033
  56.3371073  54.3326963  61.0944623  56.1693113  53.6997643  61.7926513
  55.4705583  54.5386363  60.7438813  56.9599093  38.1643743  58.5976483
  57.7178453  38.2772623  58.0240513  56.4976263  39.0012943  58.5519913
  63.5012903  40.2783013  61.5878793  62.6887413  39.9039903  61.2474673
  64.0054543  39.5228093  61.8899983  68.0037883  36.9425463  62.8261863
  68.6067253  37.5145673  63.3010383  67.2630873  37.5064903  62.6035763
  57.9433773  53.0260193  58.5394763  57.4181393  53.4068223  57.8356723
  57.8678353  53.6510963  59.2604473  59.3324243  38.6907793  57.1378453
  59.8617003  37.9037593  57.0086403  59.9652563  39.3698983  57.3713983
  61.5262083  38.4282933  60.1923843  60.8964823  37.7270243  60.3593973
  60.9867223  39.1887063  59.9757003  60.5426743  54.9742573  57.4144013
  61.2745563  54.6901853  56.8667903  60.8020413  54.7355853  58.3043393
  59.7041533  51.0907303  57.4190343  59.0750413  51.5592403  57.9676173
  59.8189363  50.2456523  57.8536533  67.1591253  45.1412963  43.5691543
  67.0785303  44.2267573  43.2983253  66.7455673  45.6380033  42.8631253
  65.2909293  46.9191983  45.4500813  64.5151393  46.4392423  45.7399383
  65.9422223  46.2397633  45.2756973  59.3075123  47.2311793  46.3276573
  58.4760003  46.9760503  46.7273083  59.9156103  47.3022563  47.0634493
  69.3116723  51.3252173  44.2299943  68.8498253  50.5539413  44.5587113
  70.1242273  51.3518243  44.7352393  59.2876383  51.2651883  46.5234593
  59.5904423  50.3749623  46.3444813  60.0319973  51.8222103  46.2956843
  57.7167073  42.1913683  40.1118963  56.8283773  42.5329653  40.0098843
  58.0008263  41.9914003  39.2199793  55.6800083  44.7919333  45.9958663
  56.2516193  44.0241533  45.9962303  55.6801623  45.0908093  45.0865273
  65.5380033  53.6110183  43.8503933  64.9191473  54.0667683  43.2798373
  66.3931813  53.7661643  43.4493633  64.7318283  49.5949173  45.4570973
  64.6626563  48.6539113  45.2960103  65.4938143  49.6850583  46.0293543
  56.9224953  40.2003693  47.7827593  56.7427793  39.3029443  48.0630353
  56.5205033  40.7475563  48.4574543  65.7623453  42.4019553  45.6839903
  66.1388273  41.5291433  45.5713573  65.6642963  42.7378253  44.7930343
  59.8928463  40.7745183  41.1457343  59.9995213  41.6748913  41.4526103
  58.9820823  40.7263153  40.8551993  69.5447573  39.8969993  42.6168243
  70.3657193  39.4066563  42.6593723  69.5781653  40.4867653  43.3700083
  57.5411623  42.6964193  46.3909933  58.2221733  42.9602563  47.0097333
  57.2259673  41.8565063  46.7247943  61.7336193  43.7431553  45.4782523
  62.2414413  44.2412523  46.1187543  62.2649433  42.9666753  45.3021883
  60.0172293  38.3830113  49.7445943  60.0190733  38.9002503  48.9391843
  59.1876603  37.9060293  49.7215873  66.4043383  48.4949423  41.2435843
  65.7860653  48.9598873  40.6798563  66.9166633  49.1876903  41.6605353
  61.2675143  48.0225293  47.9219443  60.9344523  48.6494213  48.5640513
  61.4441823  48.5487173  47.1421113  69.7809053  41.8370373  45.3895783
  69.0764623  42.1255263  45.9698893  70.1421213  42.6470483  45.0295343
  59.6987623  40.0940073  47.7516393  60.0404433  40.9382123  47.4570263
  58.7603433  40.2423813  47.8681733  60.4794243  49.9906093  49.7368623
  61.0968243  50.6657173  49.4553073  59.6187363  50.3994073  49.6456123
  55.7726583  49.1805953  38.6175473  55.3954563  49.6693053  37.8860373
  56.0299653  49.8531233  39.2482003  63.3815513  37.5822343  44.0760983
  63.6890493  37.0269233  43.3596483  62.4516213  37.7166803  43.8933973
  68.9330573  53.2989633  46.3668443  68.9457733  52.8951923  45.4990703
  68.3805793  54.0736923  46.2629873  70.2275993  50.0205853  41.4558613
  70.1172323  49.0780183  41.5808033  70.2244243  50.3821493  42.3421373
  68.3316013  48.2019473  47.6951053  68.7484803  47.9879583  46.8604513
  69.0555833  48.4592263  48.2659673  65.7696273  45.6471173  40.8121103
  64.8425553  45.5808553  41.0409573  65.9221093  46.5851303  40.6976343
  65.7565353  41.9188173  37.8088263  64.8169023  42.0802133  37.8940723
  66.0748613  42.6373853  37.2624253  69.7993563  47.2091473  41.3156353
  69.1805983  46.8711023  40.6682653  69.7818013  46.5651233  42.0235543
  69.2420123  43.3876013  48.7322163  68.8291303  44.2129723  48.9862153
  68.5096073  42.8021053  48.5398523  61.3752913  46.1735913  43.5940833
  60.9709913  45.4613163  43.0986733  61.4616033  45.8289153  44.4828873
  61.8434613  49.8603473  45.7580043  61.5462903  49.2548943  45.0787823
  62.7934433  49.8980783  45.6469403  60.0881533  42.9479123  47.3739873
  60.6396123  43.0574463  46.5993123  60.6025043  43.3216723  48.0895103
  69.9320223  53.4335343  49.4203143  69.4550783  54.2407533  49.2275753
  69.2482013  52.7813673  49.5729353  60.9353043  49.5985163  52.4087843
  60.0381573  49.8225133  52.6561243  60.9605913  49.7220103  51.4599243
  67.9758263  46.4478283  38.3229103  68.4151543  45.6100713  38.1766923
  68.6886683  47.0807683  38.4093243  59.7624263  46.4698483  50.9845213
  59.6232033  47.3421283  51.3532613  58.8805623  46.1271293  50.8393153
  66.0853643  51.3874353  42.2910343  66.5249553  52.1298683  41.8765733
  66.0240533  51.6300923  43.2149303  61.5604613  52.4120183  53.1930363
  61.5320043  52.8163133  52.3258793  61.3969583  51.4830543  53.0301963
  58.0757543  45.0680893  41.0947483  57.9555143  45.7942983  40.4828753
  57.7658433  44.2983803  40.6175393  55.7142913  48.2396033  46.9016123
  55.7923333  48.3744803  45.9571843  56.3284593  47.5311923  47.0944243
  56.9590543  49.9396223  43.3122303  56.5518623  50.0810813  42.4575903
  57.8503553  49.6556383  43.1093513  66.7769423  54.0888133  50.2189353
  67.2914093  53.9996143  51.0211783  65.9338503  54.4347833  50.5117263
  68.7523823  54.3743473  39.6473353  68.5924963  54.0846413  40.5455183
  68.5870533  53.5983603  39.1118583  61.2312203  54.1542003  41.4244973
  61.0554683  53.2377543  41.2112773  60.3767943  54.5129293  41.6642773
  68.4549953  51.8831033  38.2071353  67.7615113  51.8808323  37.5473633
  69.1972813  51.4590353  37.7765523  68.0199883  53.5093743  42.2819843
  68.4756833  52.7283123  42.5958463  68.3592403  54.2200563  42.8261023
  55.7702433  49.2810203  49.4410583  55.9333473  48.8115563  48.6229953
  56.2354883  48.7733763  50.1059423  60.5421203  38.4115963  44.4771153
  60.0989353  39.1925503  44.1455673  61.1006193  38.7345853  45.1842093
  64.8291013  41.2784483  50.0806473  64.3670383  41.4867503  50.8926413
  64.4269123  40.4643833  49.7777143  69.8295523  42.4993433  51.2103133
  68.9789113  42.1999183  51.5312203  69.6697313  42.7435443  50.2986953
  66.9245233  43.9995183  53.3101923  67.2498643  43.1658933  52.9704153
  67.7125563  44.5223703  53.4580253  63.6580023  38.0326663  39.3576983
  63.0334203  38.0286533  40.0830293  63.5710143  37.1657623  38.9612953
  62.5797103  38.9563293  46.3360753  62.8769433  39.8626123  46.2552773
  63.1282663  38.4682073  45.7220323  60.3335423  43.5349533  42.2052403
  60.1076343  43.3186703  43.1099023  59.5527953  43.9677993  41.8598373
  67.5633183  43.5412903  40.8043053  66.9642073  44.2648703  40.6206673
  68.1112793  43.4789683  40.0219503  62.7734633  44.4335113  52.8712673
  62.6778233  43.4929843  52.7213073  63.6166613  44.6550183  52.4760743
  66.1698053  42.1776443  42.8346333  66.5627623  42.4948643  42.0215023
  66.5314903  41.2988323  42.9490853  57.9045173  40.8448783  51.0246453
  57.5108563  41.6923993  51.2319233  57.2163573  40.2075153  51.2155093
  64.4790223  40.9283753  54.0943193  63.7888543  40.7355953  54.7289283
  65.2222523  41.2118393  54.6267493  55.2062223  38.7677243  45.0576533
  54.9175273  39.3380103  45.7701513  55.9507983  38.2881693  45.4207763
  55.3932453  42.7097363  36.2679253  55.3107123  43.6528123  36.4094243
  55.0415513  42.5672273  35.3891603  66.7553193  44.7682193  46.9297113
  66.0234313  45.2769003  47.2787213  66.3577533  43.9512173  46.6285893
  63.1930583  41.4436393  45.3349603  63.1966643  41.0026343  44.4854143
  64.0881703  41.7653723  45.4421423  59.0432963  41.3262883  44.2943813
  58.7033013  41.8038113  45.0510863  58.2810283  40.8728003  43.9344913
  63.2550733  42.4448473  38.3256363  63.3763553  42.4034953  39.2742183
  62.8699243  43.3072623  38.1703093  67.2179103  40.2215873  46.3420053
  67.2351843  40.6724523  47.1861903  66.9694683  39.3221513  46.5553493
  62.2672233  44.7549613  37.7239663  61.6989133  44.3067863  37.0975573
  62.9761233  45.1142393  37.1904813  70.6449853  37.6348053  52.1806433
  70.9695623  36.9037713  52.7064413  70.6806363  37.3161693  51.2787423
  57.3441413  48.6561633  51.6006393  56.9596203  48.0155303  52.1989353
  57.6553603  49.3597753  52.1701123  63.4938553  45.5038173  47.0815013
  63.8608683  45.0296743  47.8276353  63.3043613  46.3779743  47.4223353
  56.3579043  40.2481863  43.2108483  56.0725963  39.8837533  44.0487103
  56.2957903  39.5162323  42.5971623  61.2837923  44.5446813  49.3999223
  60.9794993  45.4238793  49.6249583  62.2384383  44.6046603  49.4356663
  59.8119713  48.7507803  39.9966073  59.0381973  48.2105423  39.8364793
  60.5414343  48.2314413  39.6583833  66.0317633  39.1411123  39.9321853
  65.2182243  38.6424293  39.8567163  65.8379583  39.9809373  39.5158203
  65.9526493  47.8182223  51.6761463  65.8863803  46.8977893  51.4219053
  65.3231633  47.9157663  52.3906103  68.7466023  43.5130773  38.2284013
  69.6345643  43.8248003  38.0535353  68.7171113  42.6403023  37.8364593
  59.8557113  48.4188183  43.6344883  60.3735783  47.6156443  43.5801773
  59.4041133  48.3567323  44.4761713  64.7426613  49.6854463  38.9072183
  65.0842313  50.4296693  38.4115503  63.9139323  49.9985583  39.2697013
  57.3401653  45.3849553  50.5470583  56.9816593  46.0503403  51.1343923
  57.0456213  44.5533103  50.9183203  60.5414773  45.8433793  53.4310133
  60.2414913  45.9890973  52.5337953  61.3126013  45.2839083  53.3383523
  65.8843223  50.6402793  51.4265263  65.8987763  49.7083753  51.2084173
  65.1768323  50.7262553  52.0655033  67.6254023  49.0070303  44.2717693
  67.9777843  48.4098433  43.6119063  66.7416353  48.6814533  44.4425943
  63.7117303  49.7667993  41.6788103  64.3988433  50.3137203  42.0595693
  62.9249723  50.3108723  41.7137713  55.8509703  45.3840813  37.1705183
  56.7204553  45.6665613  37.4541103  55.3600023  46.1976683  37.0553993
  63.0144513  46.7714023  41.2913463  63.4707293  47.5819273  41.5173653
  62.6632723  46.4537163  42.1231953  65.3177123  52.2820363  48.5205763
  65.9619343  52.4879743  49.1979183  65.6806563  51.5208763  48.0676613
  58.9156293  37.1151673  41.7635983  58.7870923  37.1069573  42.7120903
  58.0918313  37.4534763  41.4126993  66.5909203  50.2852713  47.2383213
  67.2331433  49.5845873  47.3515383  67.1158553  51.0651153  47.0580103
  70.4364923  50.5701333  36.9622353  70.2102503  49.8531773  37.5546993
  70.0461123  50.3213773  36.1244103  68.3646823  51.0847613  50.4419273
  68.7003063  51.6714303  51.1197193  67.4447163  50.9540323  50.6717063
  56.2180953  54.5968193  37.7366813  56.5778593  55.1957533  37.0824083
  56.0773293  55.1428083  38.5101843  55.9150223  38.8742793  51.2242683
  55.2008743  39.0739713  51.8295293  56.3345263  38.0982363  51.5957483
  70.0181173  48.4873273  38.6236513  69.7302873  48.9485963  39.4114393
  70.8133343  48.0271043  38.8920733  56.2022813  52.8623053  52.2109213
  56.3113933  51.9217793  52.0704603  55.5503373  53.1277803  51.5622943
  64.1935403  51.1338943  53.6107333  63.8732273  50.4148183  54.1553023
  63.5193763  51.8094013  53.6843393  62.2349573  51.9799393  38.5540483
  62.2259673  52.7129083  37.9384993  61.3147933  51.7330973  38.6467443
  57.8356213  47.2014283  39.2987243  57.2284163  47.9413183  39.3082543
  58.3105563  47.2913643  38.4725443  67.4089003  41.3665103  48.9744133
  67.7769823  40.5460313  49.3023703  66.5487203  41.4266993  49.3899783
  70.7751033  40.3222043  39.7831693  70.1464193  40.4267713  39.0689923
  70.2802953  40.5418823  40.5725573  65.2209173  52.0427633  37.2165673
  65.3221153  51.8391623  36.2867653  64.3210913  51.7885913  37.4213453
  62.7435063  42.6007993  41.1989573  62.0351213  43.0694333  41.6403183
  63.0279543  41.9430003  41.8334763  64.3690993  44.0204693  49.1982103
  64.8676243  44.4950513  49.8633953  64.5113943  43.0968213  49.4052133
  66.7750493  39.3258653  42.6385363  66.6518273  39.3444783  41.6894873
  67.7235053  39.3737593  42.7583763  63.8627283  54.5613953  41.9113343
  64.1168783  54.5235343  40.9892713  62.9139763  54.4347283  41.9041593
  60.9470083  40.9093073  38.5740283  61.7960613  41.3463223  38.5080473
  60.5801353  41.2213333  39.4012343  69.8679863  45.4805833  43.4871853
  68.9270003  45.4956063  43.6619543  70.1823933  44.6941793  43.9332153
  59.8461503  47.1625433  37.0475813  60.6124773  47.0506793  37.6101243
  59.9236193  46.4663403  36.3952583  58.5408263  44.5950503  37.7308703
  58.6211853  43.6478013  37.8426103  59.4328013  44.9257383  37.8369363
  59.3422973  54.7445893  44.8343243  60.0785453  54.1961353  45.1051813
  59.7263893  55.6101903  44.6949233  56.2268453  50.8119463  40.7084753
  55.3008233  51.0540603  40.6990163  56.6924883  51.6393723  40.5869503
  58.3481253  53.9291963  54.0228823  59.1493983  54.2504013  54.4364223
  57.8333073  53.5687543  54.7448733  62.4525283  53.9176203  36.6568813
  63.2453893  54.2065033  36.2050603  61.9329633  53.4868373  35.9781293
  67.1845883  50.0371833  53.9704233  66.5784043  50.0603433  53.2299983
  66.8799993  49.3054873  54.5071483  68.6146253  53.7652123  52.5813643
  69.5668003  53.6810143  52.5313883  68.4674473  54.4293833  53.2547433
  56.0679063  46.4165423  52.9664873  56.5718083  45.8372703  53.5381103
  55.3286483  46.7005653  53.5041243  62.9702683  49.1379613  36.5211163
  62.8653323  48.5231963  37.2472543  62.8026903  48.6145503  35.7374173
  63.1217003  47.8236413  52.5000393  62.3562673  48.3921413  52.4155063
  63.3032963  47.5312623  51.6068623  66.2105413  48.1999643  37.1253153
  65.6615513  48.6468943  37.7695893  66.8324673  47.6948893  37.6490823
  70.2640353  49.5541743  53.0575413  71.0049823  49.8917503  52.5542873
  69.5013033  49.7233803  52.5045183  58.1002143  44.5595013  53.8614943
  58.1407483  44.2608883  54.7700173  58.9547643  44.9602623  53.7022463
  61.8780533  47.1590563  39.0218453  62.2996953  46.9930433  39.8649843
  62.0031373  46.3490793  38.5273593  60.0407953  43.1387113  51.8289433
  59.5104413  42.6478063  51.2012773  60.7096023  43.5671313  51.2947363
  64.3908173  46.1828173  36.2695553  64.9113833  45.4677193  35.9036703
  65.0376573  46.8214043  36.5696063  68.9386013  47.6056573  51.5930623
  69.3527033  47.7601653  52.4421043  68.0037013  47.7311793  51.7556403
  69.4108183  44.9452733  53.5969773  69.9928953  44.1905053  53.5090253
  69.5869953  45.4760173  52.8201253  60.5280253  40.1049483  51.9086723
  60.4337123  39.4870233  51.1837593  59.9477643  40.8315773  51.6816633
  63.2941693  38.6622723  48.9414113  62.8458993  38.6846983  48.0959663
  62.6606893  38.2641743  49.5384413  63.7001243  47.5577053  49.5626553
  64.1189353  48.4009783  49.3902793  62.7809873  47.6949093  49.3333333
  66.0365143  45.2893233  50.9464393  66.1561353  44.6934373  51.6859233
  66.8959143  45.3262923  50.5265693  68.3753043  45.8430423  49.5226903
  67.8488263  46.3673043  48.9192043  68.7184383  46.4757813  50.1536633
  60.7739433  43.2323793  35.9676613  60.5728493  42.3691153  36.3289953
  60.6031483  43.1457153  35.0298213  61.5508663  53.8630063  50.6784283
  61.0129753  54.5876123  50.3592983  61.8042623  53.3860403  49.8881623
  62.8033913  41.8314583  52.2040213  63.3933603  41.5230433  52.8918033
  61.9854153  41.3594333  52.3600113  67.6227343  41.4480393  52.4373233
  66.9342863  40.7861933  52.3723223  68.3433363  41.0018663  52.8821693
  68.2527743  38.0432023  38.4963493  68.5330033  37.1999923  38.8522913
  67.4793473  38.2755133  39.0102243  59.5722233  40.3324413  35.9554493
  59.8748133  40.3391843  35.0473643  60.3116823  39.9822273  36.4522153
  64.4070873  55.0981273  50.9370933  64.3329573  56.0016413  51.2443303
  63.5049713  54.7793173  50.9093003  62.7907163  39.2759033  36.9410693
  62.4429163  38.5983023  36.3613143  62.9919933  38.8148543  37.7554083
  64.9556203  54.2639783  38.5597293  65.8506993  54.6024753  38.5816053
  64.9873833  53.5419193  37.9321573  58.5952363  49.6366833  36.7884293
  59.0327233  50.1796503  37.4441873  59.0800093  48.8113783  36.7980633
  55.8098163  52.4255863  44.2404553  56.1401173  51.5576923  44.0083193
  56.2389163  52.6314383  45.0709513  60.4060083  50.7564873  41.9006523
  60.1055623  50.6329843  42.8010433  60.2997573  49.8973463  41.4922253
  56.2988373  53.2926453  46.9786183  55.8619363  53.4727253  47.8110333
  56.8666053  54.0501073  46.8367903  56.1312803  45.8046683  43.3375063
  55.4761643  45.5358323  42.6934763  56.9690753  45.6951163  42.8877043
  70.6202193  49.5195433  49.3639653  69.8062033  49.9492593  49.6265443
  71.0276393  50.1313843  48.7508703  69.0803243  40.5987973  37.5593553
  69.4988123  40.4118953  36.7190213  68.7739303  39.7467023  37.8696483
  57.1688733  46.1899253  47.8778403  57.5361773  46.1026653  48.7574423
  56.5999553  45.4265803  47.7785263  56.7204733  43.1008343  51.7836823
  55.8260783  43.0675103  52.1230533  57.2602283  43.2995133  52.5488073
  55.3450883  43.0145613  39.2800393  54.4414963  43.2775813  39.1052053
  55.8291503  43.2856783  38.5000353  57.8878093  42.0711153  37.1894773
  58.5969793  41.6494373  36.7042053  57.1718033  42.1386383  36.5578123
  57.5352253  38.1250483  36.2297423  58.2580383  38.6659423  36.5478643
  57.8076773  37.8513903  35.3538963  57.2244443  37.3756673  46.1320043
  57.8720633  36.8254053  45.6915203  57.6446283  37.6299823  46.9535853
  56.9776443  37.5312343  48.8745363  56.6291263  37.9876163  49.6403543
  56.6464143  36.6369473  48.9567793  58.5840813  50.7031943  53.0398553
  58.5410443  50.3324853  53.9213013  58.7151823  51.6409513  53.1800373
  62.2846843  52.2591533  48.6408273  62.0438203  52.5266093  47.7538793
  63.2249483  52.4297263  48.6959133  64.4901263  38.7224223  52.3964783
  64.4290153  39.3146053  53.1460193  65.4301643  38.6150183  52.2515043
  67.1275823  38.3794283  52.0357073  67.7416233  38.6973573  51.3738153
  67.6725383  37.8942873  52.6552933  57.6497083  37.0588543  52.1496133
  58.1980073  36.8776593  51.3862243  57.7152393  36.2682653  52.6852443
  58.4228843  53.6494193  50.1596333  57.8289163  53.5178893  50.8986373
  58.4152683  52.8132333  49.6938433  67.8683863  36.9426423  48.3626363
  66.9943703  37.2761533  48.1599293  67.7594613  36.4699603  49.1878233
  68.7755843  39.1497293  49.7468083  68.4469203  38.3349053  49.3669813
  69.7238143  39.1067103  49.6233773  58.0541073  51.0152573  49.1104373
  57.3275133  50.3957863  49.0430323  58.1150223  51.4093183  48.2402453
  61.6586173  53.2297573  45.8953783  62.1751193  52.6184933  45.3702043
  62.3083553  53.7326353  46.3864793  64.3981673  54.1206063  46.7222763
  64.6859483  53.8660363  45.8455773  64.9104893  53.5683423  47.3128333
  65.6158683  37.8596263  47.3019273  64.8330473  38.3341763  47.5816033
  65.3221613  36.9551093  47.1932453  70.1679753  38.5619363  45.3468363
  70.6087843  38.5064463  44.4989963  69.8987343  39.4777373  45.4178543
  56.3371073  54.3326963  42.3201133  56.1693113  53.6997643  43.0183023
  55.4705583  54.5386363  41.9695323  56.9599093  38.1643743  39.8232993
  57.7178453  38.2772623  39.2497023  56.4976263  39.0012943  39.7776423
  63.5012903  40.2783013  42.8135303  62.6887413  39.9039903  42.4731183
  64.0054543  39.5228093  43.1156493  68.0037883  36.9425463  44.0518373
  68.6067253  37.5145673  44.5266893  67.2630873  37.5064903  43.8292273
  57.9433773  53.0260193  39.7651273  57.4181393  53.4068223  39.0613233
  57.8678353  53.6510963  40.4860983  59.3324243  38.6907793  38.3634963
  59.8617003  37.9037593  38.2342913  59.9652563  39.3698983  38.5970493
  61.5262083  38.4282933  41.4180353  60.8964823  37.7270243  41.5850483
  60.9867223  39.1887063  41.2013513  64.4654033  55.0422163  54.0890963
  65.3921343  54.8066433  54.1326923  64.4504463  55.8694163  53.6076993
  61.6517643  37.7066913  53.8532843  61.3701913  38.2100513  53.0893663
  62.0337343  36.9088663  53.4874973  60.5426743  54.9742573  38.6400523
  61.2745563  54.6901853  38.0924413  60.8020413  54.7355853  39.5299903
  59.7041533  51.0907303  38.6446853  59.0750413  51.5592403  39.1932683
  59.8189363  50.2456523  39.0793043  68.2533103  37.1220493  54.4313313
  68.1398553  37.4415103  55.3264833  69.0702843  37.5233003  54.1350593
  67.1591253  45.1412963  24.7948053  67.0785303  44.2267573  24.5239763
  66.7455673  45.6380033  24.0887763  65.2909293  46.9191983  26.6757323
  64.5151393  46.4392423  26.9655893  65.9422223  46.2397633  26.5013483
  59.3075123  47.2311793  27.5533083  58.4760003  46.9760503  27.9529593
  59.9156103  47.3022563  28.2891003  69.3116723  51.3252173  25.4556453
  68.8498253  50.5539413  25.7843623  70.1242273  51.3518243  25.9608903
  59.2876383  51.2651883  27.7491103  59.5904423  50.3749623  27.5701323
  60.0319973  51.8222103  27.5213353  57.7167073  42.1913683  21.3375473
  56.8283773  42.5329653  21.2355353  58.0008263  41.9914003  20.4456303
  55.6800083  44.7919333  27.2215173  56.2516193  44.0241533  27.2218813
  55.6801623  45.0908093  26.3121783  65.5380033  53.6110183  25.0760443
  64.9191473  54.0667683  24.5054883  66.3931813  53.7661643  24.6750143
  64.7318283  49.5949173  26.6827483  64.6626563  48.6539113  26.5216613
  65.4938143  49.6850583  27.2550053  56.9224953  40.2003693  29.0084103
  56.7427793  39.3029443  29.2886863  56.5205033  40.7475563  29.6831053
  65.7623453  42.4019553  26.9096413  66.1388273  41.5291433  26.7970083
  65.6642963  42.7378253  26.0186853  59.8928463  40.7745183  22.3713853
  59.9995213  41.6748913  22.6782613  58.9820823  40.7263153  22.0808503
  69.5447573  39.8969993  23.8424753  70.3657193  39.4066563  23.8850233
  69.5781653  40.4867653  24.5956593  57.5411623  42.6964193  27.6166443
  58.2221733  42.9602563  28.2353843  57.2259673  41.8565063  27.9504453
  61.7336193  43.7431553  26.7039033  62.2414413  44.2412523  27.3444053
  62.2649433  42.9666753  26.5278393  60.0172293  38.3830113  30.9702453
  60.0190733  38.9002503  30.1648353  59.1876603  37.9060293  30.9472383
  66.4043383  48.4949423  22.4692353  65.7860653  48.9598873  21.9055073
  66.9166633  49.1876903  22.8861863  61.2675143  48.0225293  29.1475953
  60.9344523  48.6494213  29.7897023  61.4441823  48.5487173  28.3677623
  69.7809053  41.8370373  26.6152293  69.0764623  42.1255263  27.1955403
  70.1421213  42.6470483  26.2551853  59.6987623  40.0940073  28.9772903
  60.0404433  40.9382123  28.6826773  58.7603433  40.2423813  29.0938243
  60.4794243  49.9906093  30.9625133  61.0968243  50.6657173  30.6809583
  59.6187363  50.3994073  30.8712633  55.7726583  49.1805953  19.8431983
  55.3954563  49.6693053  19.1116883  56.0299653  49.8531233  20.4738513
  63.3815513  37.5822343  25.3017493  63.6890493  37.0269233  24.5852993
  62.4516213  37.7166803  25.1190483  68.9330573  53.2989633  27.5924953
  68.9457733  52.8951923  26.7247213  68.3805793  54.0736923  27.4886383
  70.2275993  50.0205853  22.6815123  70.1172323  49.0780183  22.8064543
  70.2244243  50.3821493  23.5677883  68.3316013  48.2019473  28.9207563
  68.7484803  47.9879583  28.0861023  69.0555833  48.4592263  29.4916183
  65.7696273  45.6471173  22.0377613  64.8425553  45.5808553  22.2666083
  65.9221093  46.5851303  21.9232853  65.7565353  41.9188173  19.0344773
  64.8169023  42.0802133  19.1197233  66.0748613  42.6373853  18.4880763
  69.7993563  47.2091473  22.5412863  69.1805983  46.8711023  21.8939163
  69.7818013  46.5651233  23.2492053  69.2420123  43.3876013  29.9578673
  68.8291303  44.2129723  30.2118663  68.5096073  42.8021053  29.7655033
  61.3752913  46.1735913  24.8197343  60.9709913  45.4613163  24.3243243
  61.4616033  45.8289153  25.7085383  61.8434613  49.8603473  26.9836553
  61.5462903  49.2548943  26.3044333  62.7934433  49.8980783  26.8725913
  60.0881533  42.9479123  28.5996383  60.6396123  43.0574463  27.8249633
  60.6025043  43.3216723  29.3151613  69.9320223  53.4335343  30.6459653
  69.4550783  54.2407533  30.4532263  69.2482013  52.7813673  30.7985863
  60.9353043  49.5985163  33.6344353  60.0381573  49.8225133  33.8817753
  60.9605913  49.7220103  32.6855753  67.9758263  46.4478283  19.5485613
  68.4151543  45.6100713  19.4023433  68.6886683  47.0807683  19.6349753
  59.7624263  46.4698483  32.2101723  59.6232033  47.3421283  32.5789123
  58.8805623  46.1271293  32.0649663  66.0853643  51.3874353  23.5166853
  66.5249553  52.1298683  23.1022243  66.0240533  51.6300923  24.4405813
  61.5604613  52.4120183  34.4186873  61.5320043  52.8163133  33.5515303
  61.3969583  51.4830543  34.2558473  58.0757543  45.0680893  22.3203993
  57.9555143  45.7942983  21.7085263  57.7658433  44.2983803  21.8431903
  55.7142913  48.2396033  28.1272633  55.7923333  48.3744803  27.1828353
  56.3284593  47.5311923  28.3200753  56.9590543  49.9396223  24.5378813
  56.5518623  50.0810813  23.6832413  57.8503553  49.6556383  24.3350023
  66.7769423  54.0888133  31.4445863  67.2914093  53.9996143  32.2468293
  65.9338503  54.4347833  31.7373773  68.7523823  54.3743473  20.8729863
  68.5924963  54.0846413  21.7711693  68.5870533  53.5983603  20.3375093
  61.2312203  54.1542003  22.6501483  61.0554683  53.2377543  22.4369283
  60.3767943  54.5129293  22.8899283  68.4549953  51.8831033  19.4327863
  67.7615113  51.8808323  18.7730143  69.1972813  51.4590353  19.0022033
  68.0199883  53.5093743  23.5076353  68.4756833  52.7283123  23.8214973
  68.3592403  54.2200563  24.0517533  55.7702433  49.2810203  30.6667093
  55.9333473  48.8115563  29.8486463  56.2354883  48.7733763  31.3315933
  60.5421203  38.4115963  25.7027663  60.0989353  39.1925503  25.3712183
  61.1006193  38.7345853  26.4098603  64.8291013  41.2784483  31.3062983
  64.3670383  41.4867503  32.1182923  64.4269123  40.4643833  31.0033653
  69.8295523  42.4993433  32.4359643  68.9789113  42.1999183  32.7568713
  69.6697313  42.7435443  31.5243463  66.9245233  43.9995183  34.5358433
  67.2498643  43.1658933  34.1960663  67.7125563  44.5223703  34.6836763
  63.6580023  38.0326663  20.5833493  63.0334203  38.0286533  21.3086803
  63.5710143  37.1657623  20.1869463  62.5797103  38.9563293  27.5617263
  62.8769433  39.8626123  27.4809283  63.1282663  38.4682073  26.9476833
  60.3335423  43.5349533  23.4308913  60.1076343  43.3186703  24.3355533
  59.5527953  43.9677993  23.0854883  67.5633183  43.5412903  22.0299563
  66.9642073  44.2648703  21.8463183  68.1112793  43.4789683  21.2476013
  62.7734633  44.4335113  34.0969183  62.6778233  43.4929843  33.9469583
  63.6166613  44.6550183  33.7017253  66.1698053  42.1776443  24.0602843
  66.5627623  42.4948643  23.2471533  66.5314903  41.2988323  24.1747363
  57.9045173  40.8448783  32.2502963  57.5108563  41.6923993  32.4575743
  57.2163573  40.2075153  32.4411603  64.4790223  40.9283753  35.3199703
  63.7888543  40.7355953  35.9545793  65.2222523  41.2118393  35.8524003
  55.2062223  38.7677243  26.2833043  54.9175273  39.3380103  26.9958023
  55.9507983  38.2881693  26.6464273  55.3932453  42.7097363  17.4935763
  55.3107123  43.6528123  17.6350753  55.0415513  42.5672273  16.6148113
  66.7553193  44.7682193  28.1553623  66.0234313  45.2769003  28.5043723
  66.3577533  43.9512173  27.8542403  63.1930583  41.4436393  26.5606113
  63.1966643  41.0026343  25.7110653  64.0881703  41.7653723  26.6677933
  59.0432963  41.3262883  25.5200323  58.7033013  41.8038113  26.2767373
  58.2810283  40.8728003  25.1601423  63.2550733  42.4448473  19.5512873
  63.3763553  42.4034953  20.4998693  62.8699243  43.3072623  19.3959603
  67.2179103  40.2215873  27.5676563  67.2351843  40.6724523  28.4118413
  66.9694683  39.3221513  27.7810003  62.2672233  44.7549613  18.9496173
  61.6989133  44.3067863  18.3232083  62.9761233  45.1142393  18.4161323
  70.6449853  37.6348053  33.4062943  70.9695623  36.9037713  33.9320923
  70.6806363  37.3161693  32.5043933  57.3441413  48.6561633  32.8262903
  56.9596203  48.0155303  33.4245863  57.6553603  49.3597753  33.3957633
  63.4938553  45.5038173  28.3071523  63.8608683  45.0296743  29.0532863
  63.3043613  46.3779743  28.6479863  56.3579043  40.2481863  24.4364993
  56.0725963  39.8837533  25.2743613  56.2957903  39.5162323  23.8228133
  61.2837923  44.5446813  30.6255733  60.9794993  45.4238793  30.8506093
  62.2384383  44.6046603  30.6613173  59.8119713  48.7507803  21.2222583
  59.0381973  48.2105423  21.0621303  60.5414343  48.2314413  20.8840343
  66.0317633  39.1411123  21.1578363  65.2182243  38.6424293  21.0823673
  65.8379583  39.9809373  20.7414713  65.9526493  47.8182223  32.9017973
  65.8863803  46.8977893  32.6475563  65.3231633  47.9157663  33.6162613
  68.7466023  43.5130773  19.4540523  69.6345643  43.8248003  19.2791863
  68.7171113  42.6403023  19.0621103  59.8557113  48.4188183  24.8601393
  60.3735783  47.6156443  24.8058283  59.4041133  48.3567323  25.7018223
  64.7426613  49.6854463  20.1328693  65.0842313  50.4296693  19.6372013
  63.9139323  49.9985583  20.4953523  57.3401653  45.3849553  31.7727093
  56.9816593  46.0503403  32.3600433  57.0456213  44.5533103  32.1439713
  60.5414773  45.8433793  34.6566643  60.2414913  45.9890973  33.7594463
  61.3126013  45.2839083  34.5640033  65.8843223  50.6402793  32.6521773
  65.8987763  49.7083753  32.4340683  65.1768323  50.7262553  33.2911543
  67.6254023  49.0070303  25.4974203  67.9777843  48.4098433  24.8375573
  66.7416353  48.6814533  25.6682453  63.7117303  49.7667993  22.9044613
  64.3988433  50.3137203  23.2852203  62.9249723  50.3108723  22.9394223
  55.8509703  45.3840813  18.3961693  56.7204553  45.6665613  18.6797613
  55.3600023  46.1976683  18.2810503  63.0144513  46.7714023  22.5169973
  63.4707293  47.5819273  22.7430163  62.6632723  46.4537163  23.3488463
  65.3177123  52.2820363  29.7462273  65.9619343  52.4879743  30.4235693
  65.6806563  51.5208763  29.2933123  58.9156293  37.1151673  22.9892493
  58.7870923  37.1069573  23.9377413  58.0918313  37.4534763  22.6383503
  66.5909203  50.2852713  28.4639723  67.2331433  49.5845873  28.5771893
  67.1158553  51.0651153  28.2836613  70.4364923  50.5701333  18.1878863
  70.2102503  49.8531773  18.7803503  70.0461123  50.3213773  17.3500613
  68.3646823  51.0847613  31.6675783  68.7003063  51.6714303  32.3453703
  67.4447163  50.9540323  31.8973573  56.2180953  54.5968193  18.9623323
  56.5778593  55.1957533  18.3080593  56.0773293  55.1428083  19.7358353
  55.9150223  38.8742793  32.4499193  55.2008743  39.0739713  33.0551803
  56.3345263  38.0982363  32.8213993  70.0181173  48.4873273  19.8493023
  69.7302873  48.9485963  20.6370903  70.8133343  48.0271043  20.1177243
  56.2022813  52.8623053  33.4365723  56.3113933  51.9217793  33.2961113
  55.5503373  53.1277803  32.7879453  64.1935403  51.1338943  34.8363843
  63.8732273  50.4148183  35.3809533  63.5193763  51.8094013  34.9099903
  62.2349573  51.9799393  19.7796993  62.2259673  52.7129083  19.1641503
  61.3147933  51.7330973  19.8723953  57.8356213  47.2014283  20.5243753
  57.2284163  47.9413183  20.5339053  58.3105563  47.2913643  19.6981953
  67.4089003  41.3665103  30.2000643  67.7769823  40.5460313  30.5280213
  66.5487203  41.4266993  30.6156293  70.7751033  40.3222043  21.0088203
  70.1464193  40.4267713  20.2946433  70.2802953  40.5418823  21.7982083
  65.2209173  52.0427633  18.4422183  65.3221153  51.8391623  17.5124163
  64.3210913  51.7885913  18.6469963  62.7435063  42.6007993  22.4246083
  62.0351213  43.0694333  22.8659693  63.0279543  41.9430003  23.0591273
  64.3690993  44.0204693  30.4238613  64.8676243  44.4950513  31.0890463
  64.5113943  43.0968213  30.6308643  66.7750493  39.3258653  23.8641873
  66.6518273  39.3444783  22.9151383  67.7235053  39.3737593  23.9840273
  63.8627283  54.5613953  23.1369853  64.1168783  54.5235343  22.2149223
  62.9139763  54.4347283  23.1298103  60.9470083  40.9093073  19.7996793
  61.7960613  41.3463223  19.7336983  60.5801353  41.2213333  20.6268853
  69.8679863  45.4805833  24.7128363  68.9270003  45.4956063  24.8876053
  70.1823933  44.6941793  25.1588663  59.8461503  47.1625433  18.2732323
  60.6124773  47.0506793  18.8357753  59.9236193  46.4663403  17.6209093
  58.5408263  44.5950503  18.9565213  58.6211853  43.6478013  19.0682613
  59.4328013  44.9257383  19.0625873  59.3422973  54.7445893  26.0599753
  60.0785453  54.1961353  26.3308323  59.7263893  55.6101903  25.9205743
  56.2268453  50.8119463  21.9341263  55.3008233  51.0540603  21.9246673
  56.6924883  51.6393723  21.8126013  58.3481253  53.9291963  35.2485333
  59.1493983  54.2504013  35.6620733  57.8333073  53.5687543  35.9705243
  62.4525283  53.9176203  17.8825323  63.2453893  54.2065033  17.4307113
  61.9329633  53.4868373  17.2037803  67.1845883  50.0371833  35.1960743
  66.5784043  50.0603433  34.4556493  66.8799993  49.3054873  35.7327993
  68.6146253  53.7652123  33.8070153  69.5668003  53.6810143  33.7570393
  68.4674473  54.4293833  34.4803943  56.0679063  46.4165423  34.1921383
  56.5718083  45.8372703  34.7637613  55.3286483  46.7005653  34.7297753
  62.9702683  49.1379613  17.7467673  62.8653323  48.5231963  18.4729053
  62.8026903  48.6145503  16.9630683  63.1217003  47.8236413  33.7256903
  62.3562673  48.3921413  33.6411573  63.3032963  47.5312623  32.8325133
  66.2105413  48.1999643  18.3509663  65.6615513  48.6468943  18.9952403
  66.8324673  47.6948893  18.8747333  70.2640353  49.5541743  34.2831923
  71.0049823  49.8917503  33.7799383  69.5013033  49.7233803  33.7301693
  58.1002143  44.5595013  35.0871453  58.1407483  44.2608883  35.9956683
  58.9547643  44.9602623  34.9278973  61.8780533  47.1590563  20.2474963
  62.2996953  46.9930433  21.0906353  62.0031373  46.3490793  19.7530103
  60.0407953  43.1387113  33.0545943  59.5104413  42.6478063  32.4269283
  60.7096023  43.5671313  32.5203873  64.3908173  46.1828173  17.4952063
  64.9113833  45.4677193  17.1293213  65.0376573  46.8214043  17.7952573
  68.9386013  47.6056573  32.8187133  69.3527033  47.7601653  33.6677553
  68.0037013  47.7311793  32.9812913  69.4108183  44.9452733  34.8226283
  69.9928953  44.1905053  34.7346763  69.5869953  45.4760173  34.0457763
  60.5280253  40.1049483  33.1343233  60.4337123  39.4870233  32.4094103
  59.9477643  40.8315773  32.9073143  63.2941693  38.6622723  30.1670623
  62.8458993  38.6846983  29.3216173  62.6606893  38.2641743  30.7640923
  63.7001243  47.5577053  30.7883063  64.1189353  48.4009783  30.6159303
  62.7809873  47.6949093  30.5589843  66.0365143  45.2893233  32.1720903
  66.1561353  44.6934373  32.9115743  66.8959143  45.3262923  31.7522203
  68.3753043  45.8430423  30.7483413  67.8488263  46.3673043  30.1448553
  68.7184383  46.4757813  31.3793143  60.7739433  43.2323793  17.1933123
  60.5728493  42.3691153  17.5546463  60.6031483  43.1457153  16.2554723
  61.5508663  53.8630063  31.9040793  61.0129753  54.5876123  31.5849493
  61.8042623  53.3860403  31.1138133  62.8033913  41.8314583  33.4296723
  63.3933603  41.5230433  34.1174543  61.9854153  41.3594333  33.5856623
  67.6227343  41.4480393  33.6629743  66.9342863  40.7861933  33.5979733
  68.3433363  41.0018663  34.1078203  68.2527743  38.0432023  19.7220003
  68.5330033  37.1999923  20.0779423  67.4793473  38.2755133  20.2358753
  59.5722233  40.3324413  17.1811003  59.8748133  40.3391843  16.2730153
  60.3116823  39.9822273  17.6778663  64.4070873  55.0981273  32.1627443
  64.3329573  56.0016413  32.4699813  63.5049713  54.7793173  32.1349513
  62.7907163  39.2759033  18.1667203  62.4429163  38.5983023  17.5869653
  62.9919933  38.8148543  18.9810593  64.9556203  54.2639783  19.7853803
  65.8506993  54.6024753  19.8072563  64.9873833  53.5419193  19.1578083
  58.5952363  49.6366833  18.0140803  59.0327233  50.1796503  18.6698383
  59.0800093  48.8113783  18.0237143  55.8098163  52.4255863  25.4661063
  56.1401173  51.5576923  25.2339703  56.2389163  52.6314383  26.2966023
  60.4060083  50.7564873  23.1263033  60.1055623  50.6329843  24.0266943
  60.2997573  49.8973463  22.7178763  56.2988373  53.2926453  28.2042693
  55.8619363  53.4727253  29.0366843  56.8666053  54.0501073  28.0624413
  56.1312803  45.8046683  24.5631573  55.4761643  45.5358323  23.9191273
  56.9690753  45.6951163  24.1133553  70.6202193  49.5195433  30.5896163
  69.8062033  49.9492593  30.8521953  71.0276393  50.1313843  29.9765213
  69.0803243  40.5987973  18.7850063  69.4988123  40.4118953  17.9446723
  68.7739303  39.7467023  19.0952993  57.1688733  46.1899253  29.1034913
  57.5361773  46.1026653  29.9830933  56.5999553  45.4265803  29.0041773
  56.7204733  43.1008343  33.0093333  55.8260783  43.0675103  33.3487043
  57.2602283  43.2995133  33.7744583  55.3450883  43.0145613  20.5056903
  54.4414963  43.2775813  20.3308563  55.8291503  43.2856783  19.7256863
  57.8878093  42.0711153  18.4151283  58.5969793  41.6494373  17.9298563
  57.1718033  42.1386383  17.7834633  57.5352253  38.1250483  17.4553933
  58.2580383  38.6659423  17.7735153  57.8076773  37.8513903  16.5795473
  57.2244443  37.3756673  27.3576553  57.8720633  36.8254053  26.9171713
  57.6446283  37.6299823  28.1792363  56.9776443  37.5312343  30.1001873
  56.6291263  37.9876163  30.8660053  56.6464143  36.6369473  30.1824303
  58.5840813  50.7031943  34.2655063  58.5410443  50.3324853  35.1469523
  58.7151823  51.6409513  34.4056883  62.2846843  52.2591533  29.8664783
  62.0438203  52.5266093  28.9795303  63.2249483  52.4297263  29.9215643
  64.4901263  38.7224223  33.6221293  64.4290153  39.3146053  34.3716703
  65.4301643  38.6150183  33.4771553  67.1275823  38.3794283  33.2613583
  67.7416233  38.6973573  32.5994663  67.6725383  37.8942873  33.8809443
  57.6497083  37.0588543  33.3752643  58.1980073  36.8776593  32.6118753
  57.7152393  36.2682653  33.9108953  58.4228843  53.6494193  31.3852843
  57.8289163  53.5178893  32.1242883  58.4152683  52.8132333  30.9194943
  67.8683863  36.9426423  29.5882873  66.9943703  37.2761533  29.3855803
  67.7594613  36.4699603  30.4134743  68.7755843  39.1497293  30.9724593
  68.4469203  38.3349053  30.5926323  69.7238143  39.1067103  30.8490283
  58.0541073  51.0152573  30.3360883  57.3275133  50.3957863  30.2686833
  58.1150223  51.4093183  29.4658963  61.6586173  53.2297573  27.1210293
  62.1751193  52.6184933  26.5958553  62.3083553  53.7326353  27.6121303
  64.3981673  54.1206063  27.9479273  64.6859483  53.8660363  27.0712283
  64.9104893  53.5683423  28.5384843  65.6158683  37.8596263  28.5275783
  64.8330473  38.3341763  28.8072543  65.3221613  36.9551093  28.4188963
  70.1679753  38.5619363  26.5724873  70.6087843  38.5064463  25.7246473
  69.8987343  39.4777373  26.6435053  56.3371073  54.3326963  23.5457643
  56.1693113  53.6997643  24.2439533  55.4705583  54.5386363  23.1951833
  56.9599093  38.1643743  21.0489503  57.7178453  38.2772623  20.4753533
  56.4976263  39.0012943  21.0032933  63.5012903  40.2783013  24.0391813
  62.6887413  39.9039903  23.6987693  64.0054543  39.5228093  24.3413003
  68.0037883  36.9425463  25.2774883  68.6067253  37.5145673  25.7523403
  67.2630873  37.5064903  25.0548783  57.9433773  53.0260193  20.9907783
  57.4181393  53.4068223  20.2869743  57.8678353  53.6510963  21.7117493
  59.3324243  38.6907793  19.5891473  59.8617003  37.9037593  19.4599423
  59.9652563  39.3698983  19.8227003  61.5262083  38.4282933  22.6436863
  60.8964823  37.7270243  22.8106993  60.9867223  39.1887063  22.4270023
  64.4654033  55.0422163  35.3147473  65.3921343  54.8066433  35.3583433
  64.4504463  55.8694163  34.8333503  61.6517643  37.7066913  35.0789353
  61.3701913  38.2100513  34.3150173  62.0337343  36.9088663  34.7131483
  60.5426743  54.9742573  19.8657033  61.2745563  54.6901853  19.3180923
  60.8020413  54.7355853  20.7556413  59.7041533  51.0907303  19.8703363
  59.0750413  51.5592403  20.4189193  59.8189363  50.2456523  20.3049553
  68.2533103  37.1220493  35.6569823  68.1398553  37.4415103  36.5521343
  69.0702843  37.5233003  35.3607103  67.1591253  45.1412963   6.0204563
  67.0785303  44.2267573   5.7496273  66.7455673  45.6380033   5.3144273
  65.2909293  46.9191983   7.9013833  64.5151393  46.4392423   8.1912403
  65.9422223  46.2397633   7.7269993  59.3075123  47.2311793   8.7789593
  58.4760003  46.9760503   9.1786103  59.9156103  47.3022563   9.5147513
  69.3116723  51.3252173   6.6812963  68.8498253  50.5539413   7.0100133
  70.1242273  51.3518243   7.1865413  59.2876383  51.2651883   8.9747613
  59.5904423  50.3749623   8.7957833  60.0319973  51.8222103   8.7469863
  55.6800083  44.7919333   8.4471683  56.2516193  44.0241533   8.4475323
  55.6801623  45.0908093   7.5378293  65.5380033  53.6110183   6.3016953
  64.9191473  54.0667683   5.7311393  66.3931813  53.7661643   5.9006653
  64.7318283  49.5949173   7.9083993  64.6626563  48.6539113   7.7473123
  65.4938143  49.6850583   8.4806563  56.9224953  40.2003693  10.2340613
  56.7427793  39.3029443  10.5143373  56.5205033  40.7475563  10.9087563
  65.7623453  42.4019553   8.1352923  66.1388273  41.5291433   8.0226593
  65.6642963  42.7378253   7.2443363  59.8928463  40.7745183   3.5970363
  59.9995213  41.6748913   3.9039123  58.9820823  40.7263153   3.3065013
  69.5447573  39.8969993   5.0681263  70.3657193  39.4066563   5.1106743
  69.5781653  40.4867653   5.8213103  57.5411623  42.6964193   8.8422953
  58.2221733  42.9602563   9.4610353  57.2259673  41.8565063   9.1760963
  61.7336193  43.7431553   7.9295543  62.2414413  44.2412523   8.5700563
  62.2649433  42.9666753   7.7534903  60.0172293  38.3830113  12.1958963
  60.0190733  38.9002503  11.3904863  59.1876603  37.9060293  12.1728893
  66.4043383  48.4949423   3.6948863  65.7860653  48.9598873   3.1311583
  66.9166633  49.1876903   4.1118373  61.2675143  48.0225293  10.3732463
  60.9344523  48.6494213  11.0153533  61.4441823  48.5487173   9.5934133
  69.7809053  41.8370373   7.8408803  69.0764623  42.1255263   8.4211913
  70.1421213  42.6470483   7.4808363  59.6987623  40.0940073  10.2029413
  60.0404433  40.9382123   9.9083283  58.7603433  40.2423813  10.3194753
  60.4794243  49.9906093  12.1881643  61.0968243  50.6657173  11.9066093
  59.6187363  50.3994073  12.0969143  63.3815513  37.5822343   6.5274003
  63.6890493  37.0269233   5.8109503  62.4516213  37.7166803   6.3446993
  68.9330573  53.2989633   8.8181463  68.9457733  52.8951923   7.9503723
  68.3805793  54.0736923   8.7142893  70.2275993  50.0205853   3.9071633
  70.1172323  49.0780183   4.0321053  70.2244243  50.3821493   4.7934393
  68.3316013  48.2019473  10.1464073  68.7484803  47.9879583   9.3117533
  69.0555833  48.4592263  10.7172693  65.7696273  45.6471173   3.2634123
  64.8425553  45.5808553   3.4922593  65.9221093  46.5851303   3.1489363
  69.7993563  47.2091473   3.7669373  69.1805983  46.8711023   3.1195673
  69.7818013  46.5651233   4.4748563  69.2420123  43.3876013  11.1835183
  68.8291303  44.2129723  11.4375173  68.5096073  42.8021053  10.9911543
  61.3752913  46.1735913   6.0453853  60.9709913  45.4613163   5.5499753
  61.4616033  45.8289153   6.9341893  61.8434613  49.8603473   8.2093063
  61.5462903  49.2548943   7.5300843  62.7934433  49.8980783   8.0982423
  60.0881533  42.9479123   9.8252893  60.6396123  43.0574463   9.0506143
  60.6025043  43.3216723  10.5408123  69.9320223  53.4335343  11.8716163
  69.4550783  54.2407533  11.6788773  69.2482013  52.7813673  12.0242373
  60.9353043  49.5985163  14.8600863  60.0381573  49.8225133  15.1074263
  60.9605913  49.7220103  13.9112263  59.7624263  46.4698483  13.4358233
  59.6232033  47.3421283  13.8045633  58.8805623  46.1271293  13.2906173
  66.0853643  51.3874353   4.7423363  66.5249553  52.1298683   4.3278753
  66.0240533  51.6300923   5.6662323  61.5604613  52.4120183  15.6443383
  61.5320043  52.8163133  14.7771813  61.3969583  51.4830543  15.4814983
  58.0757543  45.0680893   3.5460503  57.9555143  45.7942983   2.9341773
  57.7658433  44.2983803   3.0688413  55.7142913  48.2396033   9.3529143
  55.7923333  48.3744803   8.4084863  56.3284593  47.5311923   9.5457263
  56.9590543  49.9396223   5.7635323  56.5518623  50.0810813   4.9088923
  57.8503553  49.6556383   5.5606533  66.7769423  54.0888133  12.6702373
  67.2914093  53.9996143  13.4724803  65.9338503  54.4347833  12.9630283
  61.2312203  54.1542003   3.8757993  61.0554683  53.2377543   3.6625793
  60.3767943  54.5129293   4.1155793  68.0199883  53.5093743   4.7332863
  68.4756833  52.7283123   5.0471483  68.3592403  54.2200563   5.2774043
  55.7702433  49.2810203  11.8923603  55.9333473  48.8115563  11.0742973
  56.2354883  48.7733763  12.5572443  60.5421203  38.4115963   6.9284173
  60.0989353  39.1925503   6.5968693  61.1006193  38.7345853   7.6355113
  64.8291013  41.2784483  12.5319493  64.3670383  41.4867503  13.3439433
  64.4269123  40.4643833  12.2290163  69.8295523  42.4993433  13.6616153
  68.9789113  42.1999183  13.9825223  69.6697313  42.7435443  12.7499973
  66.9245233  43.9995183  15.7614943  67.2498643  43.1658933  15.4217173
  67.7125563  44.5223703  15.9093273  62.5797103  38.9563293   8.7873773
  62.8769433  39.8626123   8.7065793  63.1282663  38.4682073   8.1733343
  60.3335423  43.5349533   4.6565423  60.1076343  43.3186703   5.5612043
  59.5527953  43.9677993   4.3111393  67.5633183  43.5412903   3.2556073
  66.9642073  44.2648703   3.0719693  68.1112793  43.4789683   2.4732523
  62.7734633  44.4335113  15.3225693  62.6778233  43.4929843  15.1726093
  63.6166613  44.6550183  14.9273763  66.1698053  42.1776443   5.2859353
  66.5627623  42.4948643   4.4728043  66.5314903  41.2988323   5.4003873
  57.9045173  40.8448783  13.4759473  57.5108563  41.6923993  13.6832253
  57.2163573  40.2075153  13.6668113  64.4790223  40.9283753  16.5456213
  63.7888543  40.7355953  17.1802303  65.2222523  41.2118393  17.0780513
  55.2062223  38.7677243   7.5089553  54.9175273  39.3380103   8.2214533
  55.9507983  38.2881693   7.8720783  66.7553193  44.7682193   9.3810133
  66.0234313  45.2769003   9.7300233  66.3577533  43.9512173   9.0798913
  63.1930583  41.4436393   7.7862623  63.1966643  41.0026343   6.9367163
  64.0881703  41.7653723   7.8934443  59.0432963  41.3262883   6.7456833
  58.7033013  41.8038113   7.5023883  58.2810283  40.8728003   6.3857933
  67.2179103  40.2215873   8.7933073  67.2351843  40.6724523   9.6374923
  66.9694683  39.3221513   9.0066513  70.6449853  37.6348053  14.6319453
  70.9695623  36.9037713  15.1577433  70.6806363  37.3161693  13.7300443
  57.3441413  48.6561633  14.0519413  56.9596203  48.0155303  14.6502373
  57.6553603  49.3597753  14.6214143  63.4938553  45.5038173   9.5328033
  63.8608683  45.0296743  10.2789373  63.3043613  46.3779743   9.8736373
  56.3579043  40.2481863   5.6621503  56.0725963  39.8837533   6.5000123
  56.2957903  39.5162323   5.0484643  61.2837923  44.5446813  11.8512243
  60.9794993  45.4238793  12.0762603  62.2384383  44.6046603  11.8869683
  59.8119713  48.7507803   2.4479093  59.0381973  48.2105423   2.2877813
  60.5414343  48.2314413   2.1096853  66.0317633  39.1411123   2.3834873
  65.2182243  38.6424293   2.3080183  65.8379583  39.9809373   1.9671223
  65.9526493  47.8182223  14.1274483  65.8863803  46.8977893  13.8732073
  65.3231633  47.9157663  14.8419123  59.8557113  48.4188183   6.0857903
  60.3735783  47.6156443   6.0314793  59.4041133  48.3567323   6.9274733
  57.3401653  45.3849553  12.9983603  56.9816593  46.0503403  13.5856943
  57.0456213  44.5533103  13.3696223  60.5414773  45.8433793  15.8823153
  60.2414913  45.9890973  14.9850973  61.3126013  45.2839083  15.7896543
  65.8843223  50.6402793  13.8778283  65.8987763  49.7083753  13.6597193
  65.1768323  50.7262553  14.5168053  67.6254023  49.0070303   6.7230713
  67.9777843  48.4098433   6.0632083  66.7416353  48.6814533   6.8938963
  63.7117303  49.7667993   4.1301123  64.3988433  50.3137203   4.5108713
  62.9249723  50.3108723   4.1650733  63.0144513  46.7714023   3.7426483
  63.4707293  47.5819273   3.9686673  62.6632723  46.4537163   4.5744973
  65.3177123  52.2820363  10.9718783  65.9619343  52.4879743  11.6492203
  65.6806563  51.5208763  10.5189633  58.9156293  37.1151673   4.2149003
  58.7870923  37.1069573   5.1633923  58.0918313  37.4534763   3.8640013
  66.5909203  50.2852713   9.6896233  67.2331433  49.5845873   9.8028403
  67.1158553  51.0651153   9.5093123  68.3646823  51.0847613  12.8932293
  68.7003063  51.6714303  13.5710213  67.4447163  50.9540323  13.1230083
  55.9150223  38.8742793  13.6755703  55.2008743  39.0739713  14.2808313
  56.3345263  38.0982363  14.0470503  56.2022813  52.8623053  14.6622233
  56.3113933  51.9217793  14.5217623  55.5503373  53.1277803  14.0135963
  64.1935403  51.1338943  16.0620353  63.8732273  50.4148183  16.6066043
  63.5193763  51.8094013  16.1356413  67.4089003  41.3665103  11.4257153
  67.7769823  40.5460313  11.7536723  66.5487203  41.4266993  11.8412803
  62.7435063  42.6007993   3.6502593  62.0351213  43.0694333   4.0916203
  63.0279543  41.9430003   4.2847783  64.3690993  44.0204693  11.6495123
  64.8676243  44.4950513  12.3146973  64.5113943  43.0968213  11.8565153
  66.7750493  39.3258653   5.0898383  66.6518273  39.3444783   4.1407893
  67.7235053  39.3737593   5.2096783  63.8627283  54.5613953   4.3626363
  64.1168783  54.5235343   3.4405733  62.9139763  54.4347283   4.3554613
  69.8679863  45.4805833   5.9384873  68.9270003  45.4956063   6.1132563
  70.1823933  44.6941793   6.3845173  59.3422973  54.7445893   7.2856263
  60.0785453  54.1961353   7.5564833  59.7263893  55.6101903   7.1462253
  56.2268453  50.8119463   3.1597773  55.3008233  51.0540603   3.1503183
  56.6924883  51.6393723   3.0382523  58.3481253  53.9291963  16.4741843
  59.1493983  54.2504013  16.8877243  57.8333073  53.5687543  17.1961753
  67.1845883  50.0371833  16.4217253  66.5784043  50.0603433  15.6813003
  66.8799993  49.3054873  16.9584503  68.6146253  53.7652123  15.0326663
  69.5668003  53.6810143  14.9826903  68.4674473  54.4293833  15.7060453
  56.0679063  46.4165423  15.4177893  56.5718083  45.8372703  15.9894123
  55.3286483  46.7005653  15.9554263  63.1217003  47.8236413  14.9513413
  62.3562673  48.3921413  14.8668083  63.3032963  47.5312623  14.0581643
  70.2640353  49.5541743  15.5088433  71.0049823  49.8917503  15.0055893
  69.5013033  49.7233803  14.9558203  58.1002143  44.5595013  16.3127963
  58.1407483  44.2608883  17.2213193  58.9547643  44.9602623  16.1535483
  60.0407953  43.1387113  14.2802453  59.5104413  42.6478063  13.6525793
  60.7096023  43.5671313  13.7460383  68.9386013  47.6056573  14.0443643
  69.3527033  47.7601653  14.8934063  68.0037013  47.7311793  14.2069423
  69.4108183  44.9452733  16.0482793  69.9928953  44.1905053  15.9603273
  69.5869953  45.4760173  15.2714273  60.5280253  40.1049483  14.3599743
  60.4337123  39.4870233  13.6350613  59.9477643  40.8315773  14.1329653
  63.2941693  38.6622723  11.3927133  62.8458993  38.6846983  10.5472683
  62.6606893  38.2641743  11.9897433  63.7001243  47.5577053  12.0139573
  64.1189353  48.4009783  11.8415813  62.7809873  47.6949093  11.7846353
  66.0365143  45.2893233  13.3977413  66.1561353  44.6934373  14.1372253
  66.8959143  45.3262923  12.9778713  68.3753043  45.8430423  11.9739923
  67.8488263  46.3673043  11.3705063  68.7184383  46.4757813  12.6049653
  61.5508663  53.8630063  13.1297303  61.0129753  54.5876123  12.8106003
  61.8042623  53.3860403  12.3394643  62.8033913  41.8314583  14.6553233
  63.3933603  41.5230433  15.3431053  61.9854153  41.3594333  14.8113133
  67.6227343  41.4480393  14.8886253  66.9342863  40.7861933  14.8236243
  68.3433363  41.0018663  15.3334713  64.4070873  55.0981273  13.3883953
  64.3329573  56.0016413  13.6956323  63.5049713  54.7793173  13.3606023
  55.8098163  52.4255863   6.6917573  56.1401173  51.5576923   6.4596213
  56.2389163  52.6314383   7.5222533  60.4060083  50.7564873   4.3519543
  60.1055623  50.6329843   5.2523453  60.2997573  49.8973463   3.9435273
  56.2988373  53.2926453   9.4299203  55.8619363  53.4727253  10.2623353
  56.8666053  54.0501073   9.2880923  56.1312803  45.8046683   5.7888083
  55.4761643  45.5358323   5.1447783  56.9690753  45.6951163   5.3390063
  70.6202193  49.5195433  11.8152673  69.8062033  49.9492593  12.0778463
  71.0276393  50.1313843  11.2021723  57.1688733  46.1899253  10.3291423
  57.5361773  46.1026653  11.2087443  56.5999553  45.4265803  10.2298283
  56.7204733  43.1008343  14.2349843  55.8260783  43.0675103  14.5743553
  57.2602283  43.2995133  15.0001093  57.2244443  37.3756673   8.5833063
  57.8720633  36.8254053   8.1428223  57.6446283  37.6299823   9.4048873
  56.9776443  37.5312343  11.3258383  56.6291263  37.9876163  12.0916563
  56.6464143  36.6369473  11.4080813  58.5840813  50.7031943  15.4911573
  58.5410443  50.3324853  16.3726033  58.7151823  51.6409513  15.6313393
  62.2846843  52.2591533  11.0921293  62.0438203  52.5266093  10.2051813
  63.2249483  52.4297263  11.1472153  64.4901263  38.7224223  14.8477803
  64.4290153  39.3146053  15.5973213  65.4301643  38.6150183  14.7028063
  67.1275823  38.3794283  14.4870093  67.7416233  38.6973573  13.8251173
  67.6725383  37.8942873  15.1065953  57.6497083  37.0588543  14.6009153
  58.1980073  36.8776593  13.8375263  57.7152393  36.2682653  15.1365463
  58.4228843  53.6494193  12.6109353  57.8289163  53.5178893  13.3499393
  58.4152683  52.8132333  12.1451453  67.8683863  36.9426423  10.8139383
  66.9943703  37.2761533  10.6112313  67.7594613  36.4699603  11.6391253
  68.7755843  39.1497293  12.1981103  68.4469203  38.3349053  11.8182833
  69.7238143  39.1067103  12.0746793  58.0541073  51.0152573  11.5617393
  57.3275133  50.3957863  11.4943343  58.1150223  51.4093183  10.6915473
  61.6586173  53.2297573   8.3466803  62.1751193  52.6184933   7.8215063
  62.3083553  53.7326353   8.8377813  64.3981673  54.1206063   9.1735783
  64.6859483  53.8660363   8.2968793  64.9104893  53.5683423   9.7641353
  65.6158683  37.8596263   9.7532293  64.8330473  38.3341763  10.0329053
  65.3221613  36.9551093   9.6445473  70.1679753  38.5619363   7.7981383
  70.6087843  38.5064463   6.9502983  69.8987343  39.4777373   7.8691563
  56.3371073  54.3326963   4.7714153  56.1693113  53.6997643   5.4696043
  55.4705583  54.5386363   4.4208343  63.5012903  40.2783013   5.2648323
  62.6887413  39.9039903   4.9244203  64.0054543  39.5228093   5.5669513
  68.0037883  36.9425463   6.5031393  68.6067253  37.5145673   6.9779913
  67.2630873  37.5064903   6.2805293  61.5262083  38.4282933   3.8693373
  60.8964823  37.7270243   4.0363503  60.9867223  39.1887063   3.6526533
  64.4654033  55.0422163  16.5403983  65.3921343  54.8066433  16.5839943
  64.4504463  55.8694163  16.0590013  61.6517643  37.7066913  16.3045863
  61.3701913  38.2100513  15.5406683  62.0337343  36.9088663  15.9387993
  68.2533103  37.1220493  16.8826333  68.1398553  37.4415103  17.7777853
  69.0702843  37.5233003  16.5863613  67.1591253  26.3669473  62.3435033
  67.0785303  25.4524083  62.0726743  66.7455673  26.8636543  61.6374743
  65.2909293  28.1448493  64.2244303  64.5151393  27.6648933  64.5142873
  65.9422223  27.4654143  64.0500463  59.3075123  28.4568303  65.1020063
  58.4760003  28.2017013  65.5016573  59.9156103  28.5279073  65.8377983
  69.3116723  32.5508683  63.0043433  68.8498253  31.7795923  63.3330603
  70.1242273  32.5774753  63.5095883  59.2876383  32.4908393  65.2978083
  59.5904423  31.6006133  65.1188303  60.0319973  33.0478613  65.0700333
  57.7167073  23.4170193  58.8862453  56.8283773  23.7586163  58.7842333
  58.0008263  23.2170513  57.9943283  55.6800083  26.0175843  64.7702153
  56.2516193  25.2498043  64.7705793  55.6801623  26.3164603  63.8608763
  65.5380033  34.8366693  62.6247423  64.9191473  35.2924193  62.0541863
  66.3931813  34.9918153  62.2237123  64.7318283  30.8205683  64.2314463
  64.6626563  29.8795623  64.0703593  65.4938143  30.9107093  64.8037033
  56.9224953  21.4260203  66.5571083  56.7427793  20.5285953  66.8373843
  56.5205033  21.9732073  67.2318033  65.7623453  23.6276063  64.4583393
  66.1388273  22.7547943  64.3457063  65.6642963  23.9634763  63.5673833
  59.8928463  22.0001693  59.9200833  59.9995213  22.9005423  60.2269593
  58.9820823  21.9519663  59.6295483  69.5447573  21.1226503  61.3911733
  70.3657193  20.6323073  61.4337213  69.5781653  21.7124163  62.1443573
  57.5411623  23.9220703  65.1653423  58.2221733  24.1859073  65.7840823
  57.2259673  23.0821573  65.4991433  61.7336193  24.9688063  64.2526013
  62.2414413  25.4669033  64.8931033  62.2649433  24.1923263  64.0765373
  60.0172293  19.6086623  68.5189433  60.0190733  20.1259013  67.7135333
  59.1876603  19.1316803  68.4959363  66.4043383  29.7205933  60.0179333
  65.7860653  30.1855383  59.4542053  66.9166633  30.4133413  60.4348843
  61.2675143  29.2481803  66.6962933  60.9344523  29.8750723  67.3384003
  61.4441823  29.7743683  65.9164603  69.7809053  23.0626883  64.1639273
  69.0764623  23.3511773  64.7442383  70.1421213  23.8726993  63.8038833
  59.6987623  21.3196583  66.5259883  60.0404433  22.1638633  66.2313753
  58.7603433  21.4680323  66.6425223  60.4794243  31.2162603  68.5112113
  61.0968243  31.8913683  68.2296563  59.6187363  31.6250583  68.4199613
  55.7726583  30.4062463  57.3918963  55.3954563  30.8949563  56.6603863
  56.0299653  31.0787743  58.0225493  63.3815513  18.8078853  62.8504473
  63.6890493  18.2525743  62.1339973  62.4516213  18.9423313  62.6677463
  68.9330573  34.5246143  65.1411933  68.9457733  34.1208433  64.2734193
  68.3805793  35.2993433  65.0373363  70.2275993  31.2462363  60.2302103
  70.1172323  30.3036693  60.3551523  70.2244243  31.6078003  61.1164863
  68.3316013  29.4275983  66.4694543  68.7484803  29.2136093  65.6348003
  69.0555833  29.6848773  67.0403163  65.7696273  26.8727683  59.5864593
  64.8425553  26.8065063  59.8153063  65.9221093  27.8107813  59.4719833
  65.7565353  23.1444683  56.5831753  64.8169023  23.3058643  56.6684213
  66.0748613  23.8630363  56.0367743  69.7993563  28.4347983  60.0899843
  69.1805983  28.0967533  59.4426143  69.7818013  27.7907743  60.7979033
  69.2420123  24.6132523  67.5065653  68.8291303  25.4386233  67.7605643
  68.5096073  24.0277563  67.3142013  61.3752913  27.3992423  62.3684323
  60.9709913  26.6869673  61.8730223  61.4616033  27.0545663  63.2572363
  61.8434613  31.0859983  64.5323533  61.5462903  30.4805453  63.8531313
  62.7934433  31.1237293  64.4212893  60.0881533  24.1735633  66.1483363
  60.6396123  24.2830973  65.3736613  60.6025043  24.5473233  66.8638593
  69.9320223  34.6591853  68.1946633  69.4550783  35.4664043  68.0019243
  69.2482013  34.0070183  68.3472843  67.9758263  27.6734793  57.0972593
  68.4151543  26.8357223  56.9510413  68.6886683  28.3064193  57.1836733
  66.0853643  32.6130863  61.0653833  66.5249553  33.3555193  60.6509223
  66.0240533  32.8557433  61.9892793  58.0757543  26.2937403  59.8690973
  57.9555143  27.0199493  59.2572243  57.7658433  25.5240313  59.3918883
  55.7142913  29.4652543  65.6759613  55.7923333  29.6001313  64.7315333
  56.3284593  28.7568433  65.8687733  56.9590543  31.1652733  62.0865793
  56.5518623  31.3067323  61.2319393  57.8503553  30.8812893  61.8837003
  66.7769423  35.3144643  68.9932843  67.2914093  35.2252653  69.7955273
  65.9338503  35.6604343  69.2860753  68.7523823  35.5999983  58.4216843
  68.5924963  35.3102923  59.3198673  68.5870533  34.8240113  57.8862073
  61.2312203  35.3798513  60.1988463  61.0554683  34.4634053  59.9856263
  60.3767943  35.7385803  60.4386263  68.4549953  33.1087543  56.9814843
  67.7615113  33.1064833  56.3217123  69.1972813  32.6846863  56.5509013
  68.0199883  34.7350253  61.0563333  68.4756833  33.9539633  61.3701953
  68.3592403  35.4457073  61.6004513  55.7702433  30.5066713  68.2154073
  55.9333473  30.0372073  67.3973443  56.2354883  29.9990273  68.8802913
  60.5421203  19.6372473  63.2514643  60.0989353  20.4182013  62.9199163
  61.1006193  19.9602363  63.9585583  64.8291013  22.5040993  68.8549963
  64.3670383  22.7124013  69.6669903  64.4269123  21.6900343  68.5520633
  63.6580023  19.2583173  58.1320473  63.0334203  19.2543043  58.8573783
  63.5710143  18.3914133  57.7356443  62.5797103  20.1819803  65.1104243
  62.8769433  21.0882633  65.0296263  63.1282663  19.6938583  64.4963813
  60.3335423  24.7606043  60.9795893  60.1076343  24.5443213  61.8842513
  59.5527953  25.1934503  60.6341863  67.5633183  24.7669413  59.5786543
  66.9642073  25.4905213  59.3950163  68.1112793  24.7046193  58.7962993
  66.1698053  23.4032953  61.6089823  66.5627623  23.7205153  60.7958513
  66.5314903  22.5244833  61.7234343  55.2062223  19.9933753  63.8320023
  54.9175273  20.5636613  64.5445003  55.9507983  19.5138203  64.1951253
  55.3932453  23.9353873  55.0422743  55.3107123  24.8784633  55.1837733
  55.0415513  23.7928783  54.1635093  66.7553193  25.9938703  65.7040603
  66.0234313  26.5025513  66.0530703  66.3577533  25.1768683  65.4029383
  63.1930583  22.6692903  64.1093093  63.1966643  22.2282853  63.2597633
  64.0881703  22.9910233  64.2164913  59.0432963  22.5519393  63.0687303
  58.7033013  23.0294623  63.8254353  58.2810283  22.0984513  62.7088403
  63.2550733  23.6704983  57.0999853  63.3763553  23.6291463  58.0485673
  62.8699243  24.5329133  56.9446583  67.2179103  21.4472383  65.1163543
  67.2351843  21.8981033  65.9605393  66.9694683  20.5478023  65.3296983
  62.2672233  25.9806123  56.4983153  61.6989133  25.5324373  55.8719063
  62.9761233  26.3398903  55.9648303  63.4938553  26.7294683  65.8558503
  63.8608683  26.2553253  66.6019843  63.3043613  27.6036253  66.1966843
  56.3579043  21.4738373  61.9851973  56.0725963  21.1094043  62.8230593
  56.2957903  20.7418833  61.3715113  61.2837923  25.7703323  68.1742713
  60.9794993  26.6495303  68.3993073  62.2384383  25.8303113  68.2100153
  59.8119713  29.9764313  58.7709563  59.0381973  29.4361933  58.6108283
  60.5414343  29.4570923  58.4327323  66.0317633  20.3667633  58.7065343
  65.2182243  19.8680803  58.6310653  65.8379583  21.2065883  58.2901693
  68.7466023  24.7387283  57.0027503  69.6345643  25.0504513  56.8278843
  68.7171113  23.8659533  56.6108083  59.8557113  29.6444693  62.4088373
  60.3735783  28.8412953  62.3545263  59.4041133  29.5823833  63.2505203
  64.7426613  30.9110973  57.6815673  65.0842313  31.6553203  57.1858993
  63.9139323  31.2242093  58.0440503  67.6254023  30.2326813  63.0461183
  67.9777843  29.6354943  62.3862553  66.7416353  29.9071043  63.2169433
  63.7117303  30.9924503  60.4531593  64.3988433  31.5393713  60.8339183
  62.9249723  31.5365233  60.4881203  55.8509703  26.6097323  55.9448673
  56.7204553  26.8922123  56.2284593  55.3600023  27.4233193  55.8297483
  63.0144513  27.9970533  60.0656953  63.4707293  28.8075783  60.2917143
  62.6632723  27.6793673  60.8975443  65.3177123  33.5076873  67.2949253
  65.9619343  33.7136253  67.9722673  65.6806563  32.7465273  66.8420103
  58.9156293  18.3408183  60.5379473  58.7870923  18.3326083  61.4864393
  58.0918313  18.6791273  60.1870483  66.5909203  31.5109223  66.0126703
  67.2331433  30.8102383  66.1258873  67.1158553  32.2907663  65.8323593
  70.4364923  31.7957843  55.7365843  70.2102503  31.0788283  56.3290483
  70.0461123  31.5470283  54.8987593  56.2180953  35.8224703  56.5110303
  56.5778593  36.4214043  55.8567573  56.0773293  36.3684593  57.2845333
  70.0181173  29.7129783  57.3980003  69.7302873  30.1742473  58.1857883
  70.8133343  29.2527553  57.6664223  62.2349573  33.2055903  57.3283973
  62.2259673  33.9385593  56.7128483  61.3147933  32.9587483  57.4210933
  57.8356213  28.4270793  58.0730733  57.2284163  29.1669693  58.0826033
  58.3105563  28.5170153  57.2468933  67.4089003  22.5921613  67.7487623
  67.7769823  21.7716823  68.0767193  66.5487203  22.6523503  68.1643273
  70.7751033  21.5478553  58.5575183  70.1464193  21.6524223  57.8433413
  70.2802953  21.7675333  59.3469063  65.2209173  33.2684143  55.9909163
  65.3221153  33.0648133  55.0611143  64.3210913  33.0142423  56.1956943
  62.7435063  23.8264503  59.9733063  62.0351213  24.2950843  60.4146673
  63.0279543  23.1686513  60.6078253  64.3690993  25.2461203  67.9725593
  64.8676243  25.7207023  68.6377443  64.5113943  24.3224723  68.1795623
  66.7750493  20.5515163  61.4128853  66.6518273  20.5701293  60.4638363
  67.7235053  20.5994103  61.5327253  63.8627283  35.7870463  60.6856833
  64.1168783  35.7491853  59.7636203  62.9139763  35.6603793  60.6785083
  60.9470083  22.1349583  57.3483773  61.7960613  22.5719733  57.2823963
  60.5801353  22.4469843  58.1755833  69.8679863  26.7062343  62.2615343
  68.9270003  26.7212573  62.4363033  70.1823933  25.9198303  62.7075643
  59.8461503  28.3881943  55.8219303  60.6124773  28.2763303  56.3844733
  59.9236193  27.6919913  55.1696073  58.5408263  25.8207013  56.5052193
  58.6211853  24.8734523  56.6169593  59.4328013  26.1513893  56.6112853
  59.3422973  35.9702403  63.6086733  60.0785453  35.4217863  63.8795303
  59.7263893  36.8358413  63.4692723  56.2268453  32.0375973  59.4828243
  55.3008233  32.2797113  59.4733653  56.6924883  32.8650233  59.3612993
  62.4525283  35.1432713  55.4312303  63.2453893  35.4321543  54.9794093
  61.9329633  34.7124883  54.7524783  62.9702683  30.3636123  55.2954653
  62.8653323  29.7488473  56.0216033  62.8026903  29.8402013  54.5117663
  66.2105413  29.4256153  55.8996643  65.6615513  29.8725453  56.5439383
  66.8324673  28.9205403  56.4234313  61.8780533  28.3847073  57.7961943
  62.2996953  28.2186943  58.6393333  62.0031373  27.5747303  57.3017083
  64.3908173  27.4084683  55.0439043  64.9113833  26.6933703  54.6780193
  65.0376573  28.0470553  55.3439553  63.2941693  19.8879233  67.7157603
  62.8458993  19.9103493  66.8703153  62.6606893  19.4898253  68.3127903
  63.7001243  28.7833563  68.3370043  64.1189353  29.6266293  68.1646283
  62.7809873  28.9205603  68.1076823  68.3753043  27.0686933  68.2970393
  67.8488263  27.5929553  67.6935533  68.7184383  27.7014323  68.9280123
  60.7739433  24.4580303  54.7420103  60.5728493  23.5947663  55.1033443
  60.6031483  24.3713663  53.8041703  61.5508663  35.0886573  69.4527773
  61.0129753  35.8132633  69.1336473  61.8042623  34.6116913  68.6625113
  68.2527743  19.2688533  57.2706983  68.5330033  18.4256433  57.6266403
  67.4793473  19.5011643  57.7845733  59.5722233  21.5580923  54.7297983
  59.8748133  21.5648353  53.8217133  60.3116823  21.2078783  55.2265643
  62.7907163  20.5015543  55.7154183  62.4429163  19.8239533  55.1356633
  62.9919933  20.0405053  56.5297573  64.9556203  35.4896293  57.3340783
  65.8506993  35.8281263  57.3559543  64.9873833  34.7675703  56.7065063
  58.5952363  30.8623343  55.5627783  59.0327233  31.4053013  56.2185363
  59.0800093  30.0370293  55.5724123  55.8098163  33.6512373  63.0148043
  56.1401173  32.7833433  62.7826683  56.2389163  33.8570893  63.8453003
  60.4060083  31.9821383  60.6750013  60.1055623  31.8586353  61.5753923
  60.2997573  31.1229973  60.2665743  56.2988373  34.5182963  65.7529673
  55.8619363  34.6983763  66.5853823  56.8666053  35.2757583  65.6111393
  56.1312803  27.0303193  62.1118553  55.4761643  26.7614833  61.4678253
  56.9690753  26.9207673  61.6620533  70.6202193  30.7451943  68.1383143
  69.8062033  31.1749103  68.4008933  71.0276393  31.3570353  67.5252193
  69.0803243  21.8244483  56.3337043  69.4988123  21.6375463  55.4933703
  68.7739303  20.9723533  56.6439973  57.1688733  27.4155763  66.6521893
  57.5361773  27.3283163  67.5317913  56.5999553  26.6522313  66.5528753
  55.3450883  24.2402123  58.0543883  54.4414963  24.5032323  57.8795543
  55.8291503  24.5113293  57.2743843  57.8878093  23.2967663  55.9638263
  58.5969793  22.8750883  55.4785543  57.1718033  23.3642893  55.3321613
  57.5352253  19.3506993  55.0040913  58.2580383  19.8915933  55.3222133
  57.8076773  19.0770413  54.1282453  57.2244443  18.6013183  64.9063533
  57.8720633  18.0510563  64.4658693  57.6446283  18.8556333  65.7279343
  56.9776443  18.7568853  67.6488853  56.6291263  19.2132673  68.4147033
  56.6464143  17.8625983  67.7311283  62.2846843  33.4848043  67.4151763
  62.0438203  33.7522603  66.5282283  63.2249483  33.6553773  67.4702623
  58.4228843  34.8750703  68.9339823  57.8289163  34.7435403  69.6729863
  58.4152683  34.0388843  68.4681923  67.8683863  18.1682933  67.1369853
  66.9943703  18.5018043  66.9342783  67.7594613  17.6956113  67.9621723
  68.7755843  20.3753803  68.5211573  68.4469203  19.5605563  68.1413303
  69.7238143  20.3323613  68.3977263  58.0541073  32.2409083  67.8847863
  57.3275133  31.6214373  67.8173813  58.1150223  32.6349693  67.0145943
  61.6586173  34.4554083  64.6697273  62.1751193  33.8441443  64.1445533
  62.3083553  34.9582863  65.1608283  64.3981673  35.3462573  65.4966253
  64.6859483  35.0916873  64.6199263  64.9104893  34.7939933  66.0871823
  65.6158683  19.0852773  66.0762763  64.8330473  19.5598273  66.3559523
  65.3221613  18.1807603  65.9675943  70.1679753  19.7875873  64.1211853
  70.6087843  19.7320973  63.2733453  69.8987343  20.7033883  64.1922033
  56.3371073  35.5583473  61.0944623  56.1693113  34.9254153  61.7926513
  55.4705583  35.7642873  60.7438813  56.9599093  19.3900253  58.5976483
  57.7178453  19.5029133  58.0240513  56.4976263  20.2269453  58.5519913
  63.5012903  21.5039523  61.5878793  62.6887413  21.1296413  61.2474673
  64.0054543  20.7484603  61.8899983  68.0037883  18.1681973  62.8261863
  68.6067253  18.7402183  63.3010383  67.2630873  18.7321413  62.6035763
  57.9433773  34.2516703  58.5394763  57.4181393  34.6324733  57.8356723
  57.8678353  34.8767473  59.2604473  59.3324243  19.9164303  57.1378453
  59.8617003  19.1294103  57.0086403  59.9652563  20.5955493  57.3713983
  61.5262083  19.6539443  60.1923843  60.8964823  18.9526753  60.3593973
  60.9867223  20.4143573  59.9757003  60.5426743  36.1999083  57.4144013
  61.2745563  35.9158363  56.8667903  60.8020413  35.9612363  58.3043393
  59.7041533  32.3163813  57.4190343  59.0750413  32.7848913  57.9676173
  59.8189363  31.4713033  57.8536533  67.1591253  26.3669473  43.5691543
  67.0785303  25.4524083  43.2983253  66.7455673  26.8636543  42.8631253
  65.2909293  28.1448493  45.4500813  64.5151393  27.6648933  45.7399383
  65.9422223  27.4654143  45.2756973  59.3075123  28.4568303  46.3276573
  58.4760003  28.2017013  46.7273083  59.9156103  28.5279073  47.0634493
  69.3116723  32.5508683  44.2299943  68.8498253  31.7795923  44.5587113
  70.1242273  32.5774753  44.7352393  59.2876383  32.4908393  46.5234593
  59.5904423  31.6006133  46.3444813  60.0319973  33.0478613  46.2956843
  57.7167073  23.4170193  40.1118963  56.8283773  23.7586163  40.0098843
  58.0008263  23.2170513  39.2199793  55.6800083  26.0175843  45.9958663
  56.2516193  25.2498043  45.9962303  55.6801623  26.3164603  45.0865273
  65.5380033  34.8366693  43.8503933  64.9191473  35.2924193  43.2798373
  66.3931813  34.9918153  43.4493633  64.7318283  30.8205683  45.4570973
  64.6626563  29.8795623  45.2960103  65.4938143  30.9107093  46.0293543
  56.9224953  21.4260203  47.7827593  56.7427793  20.5285953  48.0630353
  56.5205033  21.9732073  48.4574543  65.7623453  23.6276063  45.6839903
  66.1388273  22.7547943  45.5713573  65.6642963  23.9634763  44.7930343
  59.8928463  22.0001693  41.1457343  59.9995213  22.9005423  41.4526103
  58.9820823  21.9519663  40.8551993  69.5447573  21.1226503  42.6168243
  70.3657193  20.6323073  42.6593723  69.5781653  21.7124163  43.3700083
  57.5411623  23.9220703  46.3909933  58.2221733  24.1859073  47.0097333
  57.2259673  23.0821573  46.7247943  61.7336193  24.9688063  45.4782523
  62.2414413  25.4669033  46.1187543  62.2649433  24.1923263  45.3021883
  60.0172293  19.6086623  49.7445943  60.0190733  20.1259013  48.9391843
  59.1876603  19.1316803  49.7215873  66.4043383  29.7205933  41.2435843
  65.7860653  30.1855383  40.6798563  66.9166633  30.4133413  41.6605353
  61.2675143  29.2481803  47.9219443  60.9344523  29.8750723  48.5640513
  61.4441823  29.7743683  47.1421113  69.7809053  23.0626883  45.3895783
  69.0764623  23.3511773  45.9698893  70.1421213  23.8726993  45.0295343
  59.6987623  21.3196583  47.7516393  60.0404433  22.1638633  47.4570263
  58.7603433  21.4680323  47.8681733  60.4794243  31.2162603  49.7368623
  61.0968243  31.8913683  49.4553073  59.6187363  31.6250583  49.6456123
  55.7726583  30.4062463  38.6175473  55.3954563  30.8949563  37.8860373
  56.0299653  31.0787743  39.2482003  63.3815513  18.8078853  44.0760983
  63.6890493  18.2525743  43.3596483  62.4516213  18.9423313  43.8933973
  68.9330573  34.5246143  46.3668443  68.9457733  34.1208433  45.4990703
  68.3805793  35.2993433  46.2629873  70.2275993  31.2462363  41.4558613
  70.1172323  30.3036693  41.5808033  70.2244243  31.6078003  42.3421373
  68.3316013  29.4275983  47.6951053  68.7484803  29.2136093  46.8604513
  69.0555833  29.6848773  48.2659673  65.7696273  26.8727683  40.8121103
  64.8425553  26.8065063  41.0409573  65.9221093  27.8107813  40.6976343
  65.7565353  23.1444683  37.8088263  64.8169023  23.3058643  37.8940723
  66.0748613  23.8630363  37.2624253  69.7993563  28.4347983  41.3156353
  69.1805983  28.0967533  40.6682653  69.7818013  27.7907743  42.0235543
  69.2420123  24.6132523  48.7322163  68.8291303  25.4386233  48.9862153
  68.5096073  24.0277563  48.5398523  61.3752913  27.3992423  43.5940833
  60.9709913  26.6869673  43.0986733  61.4616033  27.0545663  44.4828873
  61.8434613  31.0859983  45.7580043  61.5462903  30.4805453  45.0787823
  62.7934433  31.1237293  45.6469403  60.0881533  24.1735633  47.3739873
  60.6396123  24.2830973  46.5993123  60.6025043  24.5473233  48.0895103
  69.9320223  34.6591853  49.4203143  69.4550783  35.4664043  49.2275753
  69.2482013  34.0070183  49.5729353  60.9353043  30.8241673  52.4087843
  60.0381573  31.0481643  52.6561243  60.9605913  30.9476613  51.4599243
  67.9758263  27.6734793  38.3229103  68.4151543  26.8357223  38.1766923
  68.6886683  28.3064193  38.4093243  59.7624263  27.6954993  50.9845213
  59.6232033  28.5677793  51.3532613  58.8805623  27.3527803  50.8393153
  66.0853643  32.6130863  42.2910343  66.5249553  33.3555193  41.8765733
  66.0240533  32.8557433  43.2149303  61.5604613  33.6376693  53.1930363
  61.5320043  34.0419643  52.3258793  61.3969583  32.7087053  53.0301963
  58.0757543  26.2937403  41.0947483  57.9555143  27.0199493  40.4828753
  57.7658433  25.5240313  40.6175393  55.7142913  29.4652543  46.9016123
  55.7923333  29.6001313  45.9571843  56.3284593  28.7568433  47.0944243
  56.9590543  31.1652733  43.3122303  56.5518623  31.3067323  42.4575903
  57.8503553  30.8812893  43.1093513  66.7769423  35.3144643  50.2189353
  67.2914093  35.2252653  51.0211783  65.9338503  35.6604343  50.5117263
  68.7523823  35.5999983  39.6473353  68.5924963  35.3102923  40.5455183
  68.5870533  34.8240113  39.1118583  61.2312203  35.3798513  41.4244973
  61.0554683  34.4634053  41.2112773  60.3767943  35.7385803  41.6642773
  68.4549953  33.1087543  38.2071353  67.7615113  33.1064833  37.5473633
  69.1972813  32.6846863  37.7765523  68.0199883  34.7350253  42.2819843
  68.4756833  33.9539633  42.5958463  68.3592403  35.4457073  42.8261023
  55.7702433  30.5066713  49.4410583  55.9333473  30.0372073  48.6229953
  56.2354883  29.9990273  50.1059423  60.5421203  19.6372473  44.4771153
  60.0989353  20.4182013  44.1455673  61.1006193  19.9602363  45.1842093
  64.8291013  22.5040993  50.0806473  64.3670383  22.7124013  50.8926413
  64.4269123  21.6900343  49.7777143  69.8295523  23.7249943  51.2103133
  68.9789113  23.4255693  51.5312203  69.6697313  23.9691953  50.2986953
  66.9245233  25.2251693  53.3101923  67.2498643  24.3915443  52.9704153
  67.7125563  25.7480213  53.4580253  63.6580023  19.2583173  39.3576983
  63.0334203  19.2543043  40.0830293  63.5710143  18.3914133  38.9612953
  62.5797103  20.1819803  46.3360753  62.8769433  21.0882633  46.2552773
  63.1282663  19.6938583  45.7220323  60.3335423  24.7606043  42.2052403
  60.1076343  24.5443213  43.1099023  59.5527953  25.1934503  41.8598373
  67.5633183  24.7669413  40.8043053  66.9642073  25.4905213  40.6206673
  68.1112793  24.7046193  40.0219503  62.7734633  25.6591623  52.8712673
  62.6778233  24.7186353  52.7213073  63.6166613  25.8806693  52.4760743
  66.1698053  23.4032953  42.8346333  66.5627623  23.7205153  42.0215023
  66.5314903  22.5244833  42.9490853  57.9045173  22.0705293  51.0246453
  57.5108563  22.9180503  51.2319233  57.2163573  21.4331663  51.2155093
  64.4790223  22.1540263  54.0943193  63.7888543  21.9612463  54.7289283
  65.2222523  22.4374903  54.6267493  55.2062223  19.9933753  45.0576533
  54.9175273  20.5636613  45.7701513  55.9507983  19.5138203  45.4207763
  55.3932453  23.9353873  36.2679253  55.3107123  24.8784633  36.4094243
  55.0415513  23.7928783  35.3891603  66.7553193  25.9938703  46.9297113
  66.0234313  26.5025513  47.2787213  66.3577533  25.1768683  46.6285893
  63.1930583  22.6692903  45.3349603  63.1966643  22.2282853  44.4854143
  64.0881703  22.9910233  45.4421423  59.0432963  22.5519393  44.2943813
  58.7033013  23.0294623  45.0510863  58.2810283  22.0984513  43.9344913
  63.2550733  23.6704983  38.3256363  63.3763553  23.6291463  39.2742183
  62.8699243  24.5329133  38.1703093  67.2179103  21.4472383  46.3420053
  67.2351843  21.8981033  47.1861903  66.9694683  20.5478023  46.5553493
  62.2672233  25.9806123  37.7239663  61.6989133  25.5324373  37.0975573
  62.9761233  26.3398903  37.1904813  70.6449853  18.8604563  52.1806433
  70.9695623  18.1294223  52.7064413  70.6806363  18.5418203  51.2787423
  57.3441413  29.8818143  51.6006393  56.9596203  29.2411813  52.1989353
  57.6553603  30.5854263  52.1701123  63.4938553  26.7294683  47.0815013
  63.8608683  26.2553253  47.8276353  63.3043613  27.6036253  47.4223353
  56.3579043  21.4738373  43.2108483  56.0725963  21.1094043  44.0487103
  56.2957903  20.7418833  42.5971623  61.2837923  25.7703323  49.3999223
  60.9794993  26.6495303  49.6249583  62.2384383  25.8303113  49.4356663
  59.8119713  29.9764313  39.9966073  59.0381973  29.4361933  39.8364793
  60.5414343  29.4570923  39.6583833  66.0317633  20.3667633  39.9321853
  65.2182243  19.8680803  39.8567163  65.8379583  21.2065883  39.5158203
  65.9526493  29.0438733  51.6761463  65.8863803  28.1234403  51.4219053
  65.3231633  29.1414173  52.3906103  68.7466023  24.7387283  38.2284013
  69.6345643  25.0504513  38.0535353  68.7171113  23.8659533  37.8364593
  59.8557113  29.6444693  43.6344883  60.3735783  28.8412953  43.5801773
  59.4041133  29.5823833  44.4761713  64.7426613  30.9110973  38.9072183
  65.0842313  31.6553203  38.4115503  63.9139323  31.2242093  39.2697013
  57.3401653  26.6106063  50.5470583  56.9816593  27.2759913  51.1343923
  57.0456213  25.7789613  50.9183203  60.5414773  27.0690303  53.4310133
  60.2414913  27.2147483  52.5337953  61.3126013  26.5095593  53.3383523
  65.8843223  31.8659303  51.4265263  65.8987763  30.9340263  51.2084173
  65.1768323  31.9519063  52.0655033  67.6254023  30.2326813  44.2717693
  67.9777843  29.6354943  43.6119063  66.7416353  29.9071043  44.4425943
  63.7117303  30.9924503  41.6788103  64.3988433  31.5393713  42.0595693
  62.9249723  31.5365233  41.7137713  55.8509703  26.6097323  37.1705183
  56.7204553  26.8922123  37.4541103  55.3600023  27.4233193  37.0553993
  63.0144513  27.9970533  41.2913463  63.4707293  28.8075783  41.5173653
  62.6632723  27.6793673  42.1231953  65.3177123  33.5076873  48.5205763
  65.9619343  33.7136253  49.1979183  65.6806563  32.7465273  48.0676613
  58.9156293  18.3408183  41.7635983  58.7870923  18.3326083  42.7120903
  58.0918313  18.6791273  41.4126993  66.5909203  31.5109223  47.2383213
  67.2331433  30.8102383  47.3515383  67.1158553  32.2907663  47.0580103
  70.4364923  31.7957843  36.9622353  70.2102503  31.0788283  37.5546993
  70.0461123  31.5470283  36.1244103  68.3646823  32.3104123  50.4419273
  68.7003063  32.8970813  51.1197193  67.4447163  32.1796833  50.6717063
  56.2180953  35.8224703  37.7366813  56.5778593  36.4214043  37.0824083
  56.0773293  36.3684593  38.5101843  55.9150223  20.0999303  51.2242683
  55.2008743  20.2996223  51.8295293  56.3345263  19.3238873  51.5957483
  70.0181173  29.7129783  38.6236513  69.7302873  30.1742473  39.4114393
  70.8133343  29.2527553  38.8920733  56.2022813  34.0879563  52.2109213
  56.3113933  33.1474303  52.0704603  55.5503373  34.3534313  51.5622943
  64.1935403  32.3595453  53.6107333  63.8732273  31.6404693  54.1553023
  63.5193763  33.0350523  53.6843393  62.2349573  33.2055903  38.5540483
  62.2259673  33.9385593  37.9384993  61.3147933  32.9587483  38.6467443
  57.8356213  28.4270793  39.2987243  57.2284163  29.1669693  39.3082543
  58.3105563  28.5170153  38.4725443  67.4089003  22.5921613  48.9744133
  67.7769823  21.7716823  49.3023703  66.5487203  22.6523503  49.3899783
  70.7751033  21.5478553  39.7831693  70.1464193  21.6524223  39.0689923
  70.2802953  21.7675333  40.5725573  65.2209173  33.2684143  37.2165673
  65.3221153  33.0648133  36.2867653  64.3210913  33.0142423  37.4213453
  62.7435063  23.8264503  41.1989573  62.0351213  24.2950843  41.6403183
  63.0279543  23.1686513  41.8334763  64.3690993  25.2461203  49.1982103
  64.8676243  25.7207023  49.8633953  64.5113943  24.3224723  49.4052133
  66.7750493  20.5515163  42.6385363  66.6518273  20.5701293  41.6894873
  67.7235053  20.5994103  42.7583763  63.8627283  35.7870463  41.9113343
  64.1168783  35.7491853  40.9892713  62.9139763  35.6603793  41.9041593
  60.9470083  22.1349583  38.5740283  61.7960613  22.5719733  38.5080473
  60.5801353  22.4469843  39.4012343  69.8679863  26.7062343  43.4871853
  68.9270003  26.7212573  43.6619543  70.1823933  25.9198303  43.9332153
  59.8461503  28.3881943  37.0475813  60.6124773  28.2763303  37.6101243
  59.9236193  27.6919913  36.3952583  58.5408263  25.8207013  37.7308703
  58.6211853  24.8734523  37.8426103  59.4328013  26.1513893  37.8369363
  59.3422973  35.9702403  44.8343243  60.0785453  35.4217863  45.1051813
  59.7263893  36.8358413  44.6949233  56.2268453  32.0375973  40.7084753
  55.3008233  32.2797113  40.6990163  56.6924883  32.8650233  40.5869503
  58.3481253  35.1548473  54.0228823  59.1493983  35.4760523  54.4364223
  57.8333073  34.7944053  54.7448733  62.4525283  35.1432713  36.6568813
  63.2453893  35.4321543  36.2050603  61.9329633  34.7124883  35.9781293
  67.1845883  31.2628343  53.9704233  66.5784043  31.2859943  53.2299983
  66.8799993  30.5311383  54.5071483  68.6146253  34.9908633  52.5813643
  69.5668003  34.9066653  52.5313883  68.4674473  35.6550343  53.2547433
  56.0679063  27.6421933  52.9664873  56.5718083  27.0629213  53.5381103
  55.3286483  27.9262163  53.5041243  62.9702683  30.3636123  36.5211163
  62.8653323  29.7488473  37.2472543  62.8026903  29.8402013  35.7374173
  63.1217003  29.0492923  52.5000393  62.3562673  29.6177923  52.4155063
  63.3032963  28.7569133  51.6068623  66.2105413  29.4256153  37.1253153
  65.6615513  29.8725453  37.7695893  66.8324673  28.9205403  37.6490823
  70.2640353  30.7798253  53.0575413  71.0049823  31.1174013  52.5542873
  69.5013033  30.9490313  52.5045183  58.1002143  25.7851523  53.8614943
  58.1407483  25.4865393  54.7700173  58.9547643  26.1859133  53.7022463
  61.8780533  28.3847073  39.0218453  62.2996953  28.2186943  39.8649843
  62.0031373  27.5747303  38.5273593  60.0407953  24.3643623  51.8289433
  59.5104413  23.8734573  51.2012773  60.7096023  24.7927823  51.2947363
  64.3908173  27.4084683  36.2695553  64.9113833  26.6933703  35.9036703
  65.0376573  28.0470553  36.5696063  68.9386013  28.8313083  51.5930623
  69.3527033  28.9858163  52.4421043  68.0037013  28.9568303  51.7556403
  69.4108183  26.1709243  53.5969773  69.9928953  25.4161563  53.5090253
  69.5869953  26.7016683  52.8201253  60.5280253  21.3305993  51.9086723
  60.4337123  20.7126743  51.1837593  59.9477643  22.0572283  51.6816633
  63.2941693  19.8879233  48.9414113  62.8458993  19.9103493  48.0959663
  62.6606893  19.4898253  49.5384413  63.7001243  28.7833563  49.5626553
  64.1189353  29.6266293  49.3902793  62.7809873  28.9205603  49.3333333
  66.0365143  26.5149743  50.9464393  66.1561353  25.9190883  51.6859233
  66.8959143  26.5519433  50.5265693  68.3753043  27.0686933  49.5226903
  67.8488263  27.5929553  48.9192043  68.7184383  27.7014323  50.1536633
  60.7739433  24.4580303  35.9676613  60.5728493  23.5947663  36.3289953
  60.6031483  24.3713663  35.0298213  61.5508663  35.0886573  50.6784283
  61.0129753  35.8132633  50.3592983  61.8042623  34.6116913  49.8881623
  62.8033913  23.0571093  52.2040213  63.3933603  22.7486943  52.8918033
  61.9854153  22.5850843  52.3600113  67.6227343  22.6736903  52.4373233
  66.9342863  22.0118443  52.3723223  68.3433363  22.2275173  52.8821693
  68.2527743  19.2688533  38.4963493  68.5330033  18.4256433  38.8522913
  67.4793473  19.5011643  39.0102243  59.5722233  21.5580923  35.9554493
  59.8748133  21.5648353  35.0473643  60.3116823  21.2078783  36.4522153
  64.4070873  36.3237783  50.9370933  64.3329573  37.2272923  51.2443303
  63.5049713  36.0049683  50.9093003  62.7907163  20.5015543  36.9410693
  62.4429163  19.8239533  36.3613143  62.9919933  20.0405053  37.7554083
  64.9556203  35.4896293  38.5597293  65.8506993  35.8281263  38.5816053
  64.9873833  34.7675703  37.9321573  58.5952363  30.8623343  36.7884293
  59.0327233  31.4053013  37.4441873  59.0800093  30.0370293  36.7980633
  55.8098163  33.6512373  44.2404553  56.1401173  32.7833433  44.0083193
  56.2389163  33.8570893  45.0709513  60.4060083  31.9821383  41.9006523
  60.1055623  31.8586353  42.8010433  60.2997573  31.1229973  41.4922253
  56.2988373  34.5182963  46.9786183  55.8619363  34.6983763  47.8110333
  56.8666053  35.2757583  46.8367903  56.1312803  27.0303193  43.3375063
  55.4761643  26.7614833  42.6934763  56.9690753  26.9207673  42.8877043
  70.6202193  30.7451943  49.3639653  69.8062033  31.1749103  49.6265443
  71.0276393  31.3570353  48.7508703  69.0803243  21.8244483  37.5593553
  69.4988123  21.6375463  36.7190213  68.7739303  20.9723533  37.8696483
  57.1688733  27.4155763  47.8778403  57.5361773  27.3283163  48.7574423
  56.5999553  26.6522313  47.7785263  56.7204733  24.3264853  51.7836823
  55.8260783  24.2931613  52.1230533  57.2602283  24.5251643  52.5488073
  55.3450883  24.2402123  39.2800393  54.4414963  24.5032323  39.1052053
  55.8291503  24.5113293  38.5000353  57.8878093  23.2967663  37.1894773
  58.5969793  22.8750883  36.7042053  57.1718033  23.3642893  36.5578123
  57.5352253  19.3506993  36.2297423  58.2580383  19.8915933  36.5478643
  57.8076773  19.0770413  35.3538963  57.2244443  18.6013183  46.1320043
  57.8720633  18.0510563  45.6915203  57.6446283  18.8556333  46.9535853
  56.9776443  18.7568853  48.8745363  56.6291263  19.2132673  49.6403543
  56.6464143  17.8625983  48.9567793  58.5840813  31.9288453  53.0398553
  58.5410443  31.5581363  53.9213013  58.7151823  32.8666023  53.1800373
  62.2846843  33.4848043  48.6408273  62.0438203  33.7522603  47.7538793
  63.2249483  33.6553773  48.6959133  64.4901263  19.9480733  52.3964783
  64.4290153  20.5402563  53.1460193  65.4301643  19.8406693  52.2515043
  67.1275823  19.6050793  52.0357073  67.7416233  19.9230083  51.3738153
  67.6725383  19.1199383  52.6552933  57.6497083  18.2845053  52.1496133
  58.1980073  18.1033103  51.3862243  57.7152393  17.4939163  52.6852443
  58.4228843  34.8750703  50.1596333  57.8289163  34.7435403  50.8986373
  58.4152683  34.0388843  49.6938433  67.8683863  18.1682933  48.3626363
  66.9943703  18.5018043  48.1599293  67.7594613  17.6956113  49.1878233
  68.7755843  20.3753803  49.7468083  68.4469203  19.5605563  49.3669813
  69.7238143  20.3323613  49.6233773  58.0541073  32.2409083  49.1104373
  57.3275133  31.6214373  49.0430323  58.1150223  32.6349693  48.2402453
  61.6586173  34.4554083  45.8953783  62.1751193  33.8441443  45.3702043
  62.3083553  34.9582863  46.3864793  64.3981673  35.3462573  46.7222763
  64.6859483  35.0916873  45.8455773  64.9104893  34.7939933  47.3128333
  65.6158683  19.0852773  47.3019273  64.8330473  19.5598273  47.5816033
  65.3221613  18.1807603  47.1932453  70.1679753  19.7875873  45.3468363
  70.6087843  19.7320973  44.4989963  69.8987343  20.7033883  45.4178543
  56.3371073  35.5583473  42.3201133  56.1693113  34.9254153  43.0183023
  55.4705583  35.7642873  41.9695323  56.9599093  19.3900253  39.8232993
  57.7178453  19.5029133  39.2497023  56.4976263  20.2269453  39.7776423
  63.5012903  21.5039523  42.8135303  62.6887413  21.1296413  42.4731183
  64.0054543  20.7484603  43.1156493  68.0037883  18.1681973  44.0518373
  68.6067253  18.7402183  44.5266893  67.2630873  18.7321413  43.8292273
  57.9433773  34.2516703  39.7651273  57.4181393  34.6324733  39.0613233
  57.8678353  34.8767473  40.4860983  59.3324243  19.9164303  38.3634963
  59.8617003  19.1294103  38.2342913  59.9652563  20.5955493  38.5970493
  61.5262083  19.6539443  41.4180353  60.8964823  18.9526753  41.5850483
  60.9867223  20.4143573  41.2013513  64.4654033  36.2678673  54.0890963
  65.3921343  36.0322943  54.1326923  64.4504463  37.0950673  53.6076993
  61.6517643  18.9323423  53.8532843  61.3701913  19.4357023  53.0893663
  62.0337343  18.1345173  53.4874973  60.5426743  36.1999083  38.6400523
  61.2745563  35.9158363  38.0924413  60.8020413  35.9612363  39.5299903
  59.7041533  32.3163813  38.6446853  59.0750413  32.7848913  39.1932683
  59.8189363  31.4713033  39.0793043  68.2533103  18.3477003  54.4313313
  68.1398553  18.6671613  55.3264833  69.0702843  18.7489513  54.1350593
  67.1591253  26.3669473  24.7948053  67.0785303  25.4524083  24.5239763
  66.7455673  26.8636543  24.0887763  65.2909293  28.1448493  26.6757323
  64.5151393  27.6648933  26.9655893  65.9422223  27.4654143  26.5013483
  59.3075123  28.4568303  27.5533083  58.4760003  28.2017013  27.9529593
  59.9156103  28.5279073  28.2891003  69.3116723  32.5508683  25.4556453
  68.8498253  31.7795923  25.7843623  70.1242273  32.5774753  25.9608903
  59.2876383  32.4908393  27.7491103  59.5904423  31.6006133  27.5701323
  60.0319973  33.0478613  27.5213353  57.7167073  23.4170193  21.3375473
  56.8283773  23.7586163  21.2355353  58.0008263  23.2170513  20.4456303
  55.6800083  26.0175843  27.2215173  56.2516193  25.2498043  27.2218813
  55.6801623  26.3164603  26.3121783  65.5380033  34.8366693  25.0760443
  64.9191473  35.2924193  24.5054883  66.3931813  34.9918153  24.6750143
  64.7318283  30.8205683  26.6827483  64.6626563  29.8795623  26.5216613
  65.4938143  30.9107093  27.2550053  56.9224953  21.4260203  29.0084103
  56.7427793  20.5285953  29.2886863  56.5205033  21.9732073  29.6831053
  65.7623453  23.6276063  26.9096413  66.1388273  22.7547943  26.7970083
  65.6642963  23.9634763  26.0186853  59.8928463  22.0001693  22.3713853
  59.9995213  22.9005423  22.6782613  58.9820823  21.9519663  22.0808503
  69.5447573  21.1226503  23.8424753  70.3657193  20.6323073  23.8850233
  69.5781653  21.7124163  24.5956593  57.5411623  23.9220703  27.6166443
  58.2221733  24.1859073  28.2353843  57.2259673  23.0821573  27.9504453
  61.7336193  24.9688063  26.7039033  62.2414413  25.4669033  27.3444053
  62.2649433  24.1923263  26.5278393  60.0172293  19.6086623  30.9702453
  60.0190733  20.1259013  30.1648353  59.1876603  19.1316803  30.9472383
  66.4043383  29.7205933  22.4692353  65.7860653  30.1855383  21.9055073
  66.9166633  30.4133413  22.8861863  61.2675143  29.2481803  29.1475953
  60.9344523  29.8750723  29.7897023  61.4441823  29.7743683  28.3677623
  69.7809053  23.0626883  26.6152293  69.0764623  23.3511773  27.1955403
  70.1421213  23.8726993  26.2551853  59.6987623  21.3196583  28.9772903
  60.0404433  22.1638633  28.6826773  58.7603433  21.4680323  29.0938243
  60.4794243  31.2162603  30.9625133  61.0968243  31.8913683  30.6809583
  59.6187363  31.6250583  30.8712633  55.7726583  30.4062463  19.8431983
  55.3954563  30.8949563  19.1116883  56.0299653  31.0787743  20.4738513
  63.3815513  18.8078853  25.3017493  63.6890493  18.2525743  24.5852993
  62.4516213  18.9423313  25.1190483  68.9330573  34.5246143  27.5924953
  68.9457733  34.1208433  26.7247213  68.3805793  35.2993433  27.4886383
  70.2275993  31.2462363  22.6815123  70.1172323  30.3036693  22.8064543
  70.2244243  31.6078003  23.5677883  68.3316013  29.4275983  28.9207563
  68.7484803  29.2136093  28.0861023  69.0555833  29.6848773  29.4916183
  65.7696273  26.8727683  22.0377613  64.8425553  26.8065063  22.2666083
  65.9221093  27.8107813  21.9232853  65.7565353  23.1444683  19.0344773
  64.8169023  23.3058643  19.1197233  66.0748613  23.8630363  18.4880763
  69.7993563  28.4347983  22.5412863  69.1805983  28.0967533  21.8939163
  69.7818013  27.7907743  23.2492053  69.2420123  24.6132523  29.9578673
  68.8291303  25.4386233  30.2118663  68.5096073  24.0277563  29.7655033
  61.3752913  27.3992423  24.8197343  60.9709913  26.6869673  24.3243243
  61.4616033  27.0545663  25.7085383  61.8434613  31.0859983  26.9836553
  61.5462903  30.4805453  26.3044333  62.7934433  31.1237293  26.8725913
  60.0881533  24.1735633  28.5996383  60.6396123  24.2830973  27.8249633
  60.6025043  24.5473233  29.3151613  69.9320223  34.6591853  30.6459653
  69.4550783  35.4664043  30.4532263  69.2482013  34.0070183  30.7985863
  60.9353043  30.8241673  33.6344353  60.0381573  31.0481643  33.8817753
  60.9605913  30.9476613  32.6855753  67.9758263  27.6734793  19.5485613
  68.4151543  26.8357223  19.4023433  68.6886683  28.3064193  19.6349753
  59.7624263  27.6954993  32.2101723  59.6232033  28.5677793  32.5789123
  58.8805623  27.3527803  32.0649663  66.0853643  32.6130863  23.5166853
  66.5249553  33.3555193  23.1022243  66.0240533  32.8557433  24.4405813
  61.5604613  33.6376693  34.4186873  61.5320043  34.0419643  33.5515303
  61.3969583  32.7087053  34.2558473  58.0757543  26.2937403  22.3203993
  57.9555143  27.0199493  21.7085263  57.7658433  25.5240313  21.8431903
  55.7142913  29.4652543  28.1272633  55.7923333  29.6001313  27.1828353
  56.3284593  28.7568433  28.3200753  56.9590543  31.1652733  24.5378813
  56.5518623  31.3067323  23.6832413  57.8503553  30.8812893  24.3350023
  66.7769423  35.3144643  31.4445863  67.2914093  35.2252653  32.2468293
  65.9338503  35.6604343  31.7373773  68.7523823  35.5999983  20.8729863
  68.5924963  35.3102923  21.7711693  68.5870533  34.8240113  20.3375093
  61.2312203  35.3798513  22.6501483  61.0554683  34.4634053  22.4369283
  60.3767943  35.7385803  22.8899283  68.4549953  33.1087543  19.4327863
  67.7615113  33.1064833  18.7730143  69.1972813  32.6846863  19.0022033
  68.0199883  34.7350253  23.5076353  68.4756833  33.9539633  23.8214973
  68.3592403  35.4457073  24.0517533  55.7702433  30.5066713  30.6667093
  55.9333473  30.0372073  29.8486463  56.2354883  29.9990273  31.3315933
  60.5421203  19.6372473  25.7027663  60.0989353  20.4182013  25.3712183
  61.1006193  19.9602363  26.4098603  64.8291013  22.5040993  31.3062983
  64.3670383  22.7124013  32.1182923  64.4269123  21.6900343  31.0033653
  69.8295523  23.7249943  32.4359643  68.9789113  23.4255693  32.7568713
  69.6697313  23.9691953  31.5243463  66.9245233  25.2251693  34.5358433
  67.2498643  24.3915443  34.1960663  67.7125563  25.7480213  34.6836763
  63.6580023  19.2583173  20.5833493  63.0334203  19.2543043  21.3086803
  63.5710143  18.3914133  20.1869463  62.5797103  20.1819803  27.5617263
  62.8769433  21.0882633  27.4809283  63.1282663  19.6938583  26.9476833
  60.3335423  24.7606043  23.4308913  60.1076343  24.5443213  24.3355533
  59.5527953  25.1934503  23.0854883  67.5633183  24.7669413  22.0299563
  66.9642073  25.4905213  21.8463183  68.1112793  24.7046193  21.2476013
  62.7734633  25.6591623  34.0969183  62.6778233  24.7186353  33.9469583
  63.6166613  25.8806693  33.7017253  66.1698053  23.4032953  24.0602843
  66.5627623  23.7205153  23.2471533  66.5314903  22.5244833  24.1747363
  57.9045173  22.0705293  32.2502963  57.5108563  22.9180503  32.4575743
  57.2163573  21.4331663  32.4411603  64.4790223  22.1540263  35.3199703
  63.7888543  21.9612463  35.9545793  65.2222523  22.4374903  35.8524003
  55.2062223  19.9933753  26.2833043  54.9175273  20.5636613  26.9958023
  55.9507983  19.5138203  26.6464273  55.3932453  23.9353873  17.4935763
  55.3107123  24.8784633  17.6350753  55.0415513  23.7928783  16.6148113
  66.7553193  25.9938703  28.1553623  66.0234313  26.5025513  28.5043723
  66.3577533  25.1768683  27.8542403  63.1930583  22.6692903  26.5606113
  63.1966643  22.2282853  25.7110653  64.0881703  22.9910233  26.6677933
  59.0432963  22.5519393  25.5200323  58.7033013  23.0294623  26.2767373
  58.2810283  22.0984513  25.1601423  63.2550733  23.6704983  19.5512873
  63.3763553  23.6291463  20.4998693  62.8699243  24.5329133  19.3959603
  67.2179103  21.4472383  27.5676563  67.2351843  21.8981033  28.4118413
  66.9694683  20.5478023  27.7810003  62.2672233  25.9806123  18.9496173
  61.6989133  25.5324373  18.3232083  62.9761233  26.3398903  18.4161323
  70.6449853  18.8604563  33.4062943  70.9695623  18.1294223  33.9320923
  70.6806363  18.5418203  32.5043933  57.3441413  29.8818143  32.8262903
  56.9596203  29.2411813  33.4245863  57.6553603  30.5854263  33.3957633
  63.4938553  26.7294683  28.3071523  63.8608683  26.2553253  29.0532863
  63.3043613  27.6036253  28.6479863  56.3579043  21.4738373  24.4364993
  56.0725963  21.1094043  25.2743613  56.2957903  20.7418833  23.8228133
  61.2837923  25.7703323  30.6255733  60.9794993  26.6495303  30.8506093
  62.2384383  25.8303113  30.6613173  59.8119713  29.9764313  21.2222583
  59.0381973  29.4361933  21.0621303  60.5414343  29.4570923  20.8840343
  66.0317633  20.3667633  21.1578363  65.2182243  19.8680803  21.0823673
  65.8379583  21.2065883  20.7414713  65.9526493  29.0438733  32.9017973
  65.8863803  28.1234403  32.6475563  65.3231633  29.1414173  33.6162613
  68.7466023  24.7387283  19.4540523  69.6345643  25.0504513  19.2791863
  68.7171113  23.8659533  19.0621103  59.8557113  29.6444693  24.8601393
  60.3735783  28.8412953  24.8058283  59.4041133  29.5823833  25.7018223
  64.7426613  30.9110973  20.1328693  65.0842313  31.6553203  19.6372013
  63.9139323  31.2242093  20.4953523  57.3401653  26.6106063  31.7727093
  56.9816593  27.2759913  32.3600433  57.0456213  25.7789613  32.1439713
  60.5414773  27.0690303  34.6566643  60.2414913  27.2147483  33.7594463
  61.3126013  26.5095593  34.5640033  65.8843223  31.8659303  32.6521773
  65.8987763  30.9340263  32.4340683  65.1768323  31.9519063  33.2911543
  67.6254023  30.2326813  25.4974203  67.9777843  29.6354943  24.8375573
  66.7416353  29.9071043  25.6682453  63.7117303  30.9924503  22.9044613
  64.3988433  31.5393713  23.2852203  62.9249723  31.5365233  22.9394223
  55.8509703  26.6097323  18.3961693  56.7204553  26.8922123  18.6797613
  55.3600023  27.4233193  18.2810503  63.0144513  27.9970533  22.5169973
  63.4707293  28.8075783  22.7430163  62.6632723  27.6793673  23.3488463
  65.3177123  33.5076873  29.7462273  65.9619343  33.7136253  30.4235693
  65.6806563  32.7465273  29.2933123  58.9156293  18.3408183  22.9892493
  58.7870923  18.3326083  23.9377413  58.0918313  18.6791273  22.6383503
  66.5909203  31.5109223  28.4639723  67.2331433  30.8102383  28.5771893
  67.1158553  32.2907663  28.2836613  70.4364923  31.7957843  18.1878863
  70.2102503  31.0788283  18.7803503  70.0461123  31.5470283  17.3500613
  68.3646823  32.3104123  31.6675783  68.7003063  32.8970813  32.3453703
  67.4447163  32.1796833  31.8973573  56.2180953  35.8224703  18.9623323
  56.5778593  36.4214043  18.3080593  56.0773293  36.3684593  19.7358353
  55.9150223  20.0999303  32.4499193  55.2008743  20.2996223  33.0551803
  56.3345263  19.3238873  32.8213993  70.0181173  29.7129783  19.8493023
  69.7302873  30.1742473  20.6370903  70.8133343  29.2527553  20.1177243
  56.2022813  34.0879563  33.4365723  56.3113933  33.1474303  33.2961113
  55.5503373  34.3534313  32.7879453  64.1935403  32.3595453  34.8363843
  63.8732273  31.6404693  35.3809533  63.5193763  33.0350523  34.9099903
  62.2349573  33.2055903  19.7796993  62.2259673  33.9385593  19.1641503
  61.3147933  32.9587483  19.8723953  57.8356213  28.4270793  20.5243753
  57.2284163  29.1669693  20.5339053  58.3105563  28.5170153  19.6981953
  67.4089003  22.5921613  30.2000643  67.7769823  21.7716823  30.5280213
  66.5487203  22.6523503  30.6156293  70.7751033  21.5478553  21.0088203
  70.1464193  21.6524223  20.2946433  70.2802953  21.7675333  21.7982083
  65.2209173  33.2684143  18.4422183  65.3221153  33.0648133  17.5124163
  64.3210913  33.0142423  18.6469963  62.7435063  23.8264503  22.4246083
  62.0351213  24.2950843  22.8659693  63.0279543  23.1686513  23.0591273
  64.3690993  25.2461203  30.4238613  64.8676243  25.7207023  31.0890463
  64.5113943  24.3224723  30.6308643  66.7750493  20.5515163  23.8641873
  66.6518273  20.5701293  22.9151383  67.7235053  20.5994103  23.9840273
  63.8627283  35.7870463  23.1369853  64.1168783  35.7491853  22.2149223
  62.9139763  35.6603793  23.1298103  60.9470083  22.1349583  19.7996793
  61.7960613  22.5719733  19.7336983  60.5801353  22.4469843  20.6268853
  69.8679863  26.7062343  24.7128363  68.9270003  26.7212573  24.8876053
  70.1823933  25.9198303  25.1588663  59.8461503  28.3881943  18.2732323
  60.6124773  28.2763303  18.8357753  59.9236193  27.6919913  17.6209093
  58.5408263  25.8207013  18.9565213  58.6211853  24.8734523  19.0682613
  59.4328013  26.1513893  19.0625873  59.3422973  35.9702403  26.0599753
  60.0785453  35.4217863  26.3308323  59.7263893  36.8358413  25.9205743
  56.2268453  32.0375973  21.9341263  55.3008233  32.2797113  21.9246673
  56.6924883  32.8650233  21.8126013  58.3481253  35.1548473  35.2485333
  59.1493983  35.4760523  35.6620733  57.8333073  34.7944053  35.9705243
  62.4525283  35.1432713  17.8825323  63.2453893  35.4321543  17.4307113
  61.9329633  34.7124883  17.2037803  67.1845883  31.2628343  35.1960743
  66.5784043  31.2859943  34.4556493  66.8799993  30.5311383  35.7327993
  68.6146253  34.9908633  33.8070153  69.5668003  34.9066653  33.7570393
  68.4674473  35.6550343  34.4803943  56.0679063  27.6421933  34.1921383
  56.5718083  27.0629213  34.7637613  55.3286483  27.9262163  34.7297753
  62.9702683  30.3636123  17.7467673  62.8653323  29.7488473  18.4729053
  62.8026903  29.8402013  16.9630683  63.1217003  29.0492923  33.7256903
  62.3562673  29.6177923  33.6411573  63.3032963  28.7569133  32.8325133
  66.2105413  29.4256153  18.3509663  65.6615513  29.8725453  18.9952403
  66.8324673  28.9205403  18.8747333  70.2640353  30.7798253  34.2831923
  71.0049823  31.1174013  33.7799383  69.5013033  30.9490313  33.7301693
  58.1002143  25.7851523  35.0871453  58.1407483  25.4865393  35.9956683
  58.9547643  26.1859133  34.9278973  61.8780533  28.3847073  20.2474963
  62.2996953  28.2186943  21.0906353  62.0031373  27.5747303  19.7530103
  60.0407953  24.3643623  33.0545943  59.5104413  23.8734573  32.4269283
  60.7096023  24.7927823  32.5203873  64.3908173  27.4084683  17.4952063
  64.9113833  26.6933703  17.1293213  65.0376573  28.0470553  17.7952573
  68.9386013  28.8313083  32.8187133  69.3527033  28.9858163  33.6677553
  68.0037013  28.9568303  32.9812913  69.4108183  26.1709243  34.8226283
  69.9928953  25.4161563  34.7346763  69.5869953  26.7016683  34.0457763
  60.5280253  21.3305993  33.1343233  60.4337123  20.7126743  32.4094103
  59.9477643  22.0572283  32.9073143  63.2941693  19.8879233  30.1670623
  62.8458993  19.9103493  29.3216173  62.6606893  19.4898253  30.7640923
  63.7001243  28.7833563  30.7883063  64.1189353  29.6266293  30.6159303
  62.7809873  28.9205603  30.5589843  66.0365143  26.5149743  32.1720903
  66.1561353  25.9190883  32.9115743  66.8959143  26.5519433  31.7522203
  68.3753043  27.0686933  30.7483413  67.8488263  27.5929553  30.1448553
  68.7184383  27.7014323  31.3793143  60.7739433  24.4580303  17.1933123
  60.5728493  23.5947663  17.5546463  60.6031483  24.3713663  16.2554723
  61.5508663  35.0886573  31.9040793  61.0129753  35.8132633  31.5849493
  61.8042623  34.6116913  31.1138133  62.8033913  23.0571093  33.4296723
  63.3933603  22.7486943  34.1174543  61.9854153  22.5850843  33.5856623
  67.6227343  22.6736903  33.6629743  66.9342863  22.0118443  33.5979733
  68.3433363  22.2275173  34.1078203  68.2527743  19.2688533  19.7220003
  68.5330033  18.4256433  20.0779423  67.4793473  19.5011643  20.2358753
  59.5722233  21.5580923  17.1811003  59.8748133  21.5648353  16.2730153
  60.3116823  21.2078783  17.6778663  64.4070873  36.3237783  32.1627443
  64.3329573  37.2272923  32.4699813  63.5049713  36.0049683  32.1349513
  62.7907163  20.5015543  18.1667203  62.4429163  19.8239533  17.5869653
  62.9919933  20.0405053  18.9810593  64.9556203  35.4896293  19.7853803
  65.8506993  35.8281263  19.8072563  64.9873833  34.7675703  19.1578083
  58.5952363  30.8623343  18.0140803  59.0327233  31.4053013  18.6698383
  59.0800093  30.0370293  18.0237143  55.8098163  33.6512373  25.4661063
  56.1401173  32.7833433  25.2339703  56.2389163  33.8570893  26.2966023
  60.4060083  31.9821383  23.1263033  60.1055623  31.8586353  24.0266943
  60.2997573  31.1229973  22.7178763  56.2988373  34.5182963  28.2042693
  55.8619363  34.6983763  29.0366843  56.8666053  35.2757583  28.0624413
  56.1312803  27.0303193  24.5631573  55.4761643  26.7614833  23.9191273
  56.9690753  26.9207673  24.1133553  70.6202193  30.7451943  30.5896163
  69.8062033  31.1749103  30.8521953  71.0276393  31.3570353  29.9765213
  69.0803243  21.8244483  18.7850063  69.4988123  21.6375463  17.9446723
  68.7739303  20.9723533  19.0952993  57.1688733  27.4155763  29.1034913
  57.5361773  27.3283163  29.9830933  56.5999553  26.6522313  29.0041773
  56.7204733  24.3264853  33.0093333  55.8260783  24.2931613  33.3487043
  57.2602283  24.5251643  33.7744583  55.3450883  24.2402123  20.5056903
  54.4414963  24.5032323  20.3308563  55.8291503  24.5113293  19.7256863
  57.8878093  23.2967663  18.4151283  58.5969793  22.8750883  17.9298563
  57.1718033  23.3642893  17.7834633  57.5352253  19.3506993  17.4553933
  58.2580383  19.8915933  17.7735153  57.8076773  19.0770413  16.5795473
  57.2244443  18.6013183  27.3576553  57.8720633  18.0510563  26.9171713
  57.6446283  18.8556333  28.1792363  56.9776443  18.7568853  30.1001873
  56.6291263  19.2132673  30.8660053  56.6464143  17.8625983  30.1824303
  58.5840813  31.9288453  34.2655063  58.5410443  31.5581363  35.1469523
  58.7151823  32.8666023  34.4056883  62.2846843  33.4848043  29.8664783
  62.0438203  33.7522603  28.9795303  63.2249483  33.6553773  29.9215643
  64.4901263  19.9480733  33.6221293  64.4290153  20.5402563  34.3716703
  65.4301643  19.8406693  33.4771553  67.1275823  19.6050793  33.2613583
  67.7416233  19.9230083  32.5994663  67.6725383  19.1199383  33.8809443
  57.6497083  18.2845053  33.3752643  58.1980073  18.1033103  32.6118753
  57.7152393  17.4939163  33.9108953  58.4228843  34.8750703  31.3852843
  57.8289163  34.7435403  32.1242883  58.4152683  34.0388843  30.9194943
  67.8683863  18.1682933  29.5882873  66.9943703  18.5018043  29.3855803
  67.7594613  17.6956113  30.4134743  68.7755843  20.3753803  30.9724593
  68.4469203  19.5605563  30.5926323  69.7238143  20.3323613  30.8490283
  58.0541073  32.2409083  30.3360883  57.3275133  31.6214373  30.2686833
  58.1150223  32.6349693  29.4658963  61.6586173  34.4554083  27.1210293
  62.1751193  33.8441443  26.5958553  62.3083553  34.9582863  27.6121303
  64.3981673  35.3462573  27.9479273  64.6859483  35.0916873  27.0712283
  64.9104893  34.7939933  28.5384843  65.6158683  19.0852773  28.5275783
  64.8330473  19.5598273  28.8072543  65.3221613  18.1807603  28.4188963
  70.1679753  19.7875873  26.5724873  70.6087843  19.7320973  25.7246473
  69.8987343  20.7033883  26.6435053  56.3371073  35.5583473  23.5457643
  56.1693113  34.9254153  24.2439533  55.4705583  35.7642873  23.1951833
  56.9599093  19.3900253  21.0489503  57.7178453  19.5029133  20.4753533
  56.4976263  20.2269453  21.0032933  63.5012903  21.5039523  24.0391813
  62.6887413  21.1296413  23.6987693  64.0054543  20.7484603  24.3413003
  68.0037883  18.1681973  25.2774883  68.6067253  18.7402183  25.7523403
  67.2630873  18.7321413  25.0548783  57.9433773  34.2516703  20.9907783
  57.4181393  34.6324733  20.2869743  57.8678353  34.8767473  21.7117493
  59.3324243  19.9164303  19.5891473  59.8617003  19.1294103  19.4599423
  59.9652563  20.5955493  19.8227003  61.5262083  19.6539443  22.6436863
  60.8964823  18.9526753  22.8106993  60.9867223  20.4143573  22.4270023
  64.4654033  36.2678673  35.3147473  65.3921343  36.0322943  35.3583433
  64.4504463  37.0950673  34.8333503  61.6517643  18.9323423  35.0789353
  61.3701913  19.4357023  34.3150173  62.0337343  18.1345173  34.7131483
  60.5426743  36.1999083  19.8657033  61.2745563  35.9158363  19.3180923
  60.8020413  35.9612363  20.7556413  59.7041533  32.3163813  19.8703363
  59.0750413  32.7848913  20.4189193  59.8189363  31.4713033  20.3049553
  68.2533103  18.3477003  35.6569823  68.1398553  18.6671613  36.5521343
  69.0702843  18.7489513  35.3607103  67.1591253  26.3669473   6.0204563
  67.0785303  25.4524083   5.7496273  66.7455673  26.8636543   5.3144273
  65.2909293  28.1448493   7.9013833  64.5151393  27.6648933   8.1912403
  65.9422223  27.4654143   7.7269993  59.3075123  28.4568303   8.7789593
  58.4760003  28.2017013   9.1786103  59.9156103  28.5279073   9.5147513
  69.3116723  32.5508683   6.6812963  68.8498253  31.7795923   7.0100133
  70.1242273  32.5774753   7.1865413  59.2876383  32.4908393   8.9747613
  59.5904423  31.6006133   8.7957833  60.0319973  33.0478613   8.7469863
  55.6800083  26.0175843   8.4471683  56.2516193  25.2498043   8.4475323
  55.6801623  26.3164603   7.5378293  65.5380033  34.8366693   6.3016953
  64.9191473  35.2924193   5.7311393  66.3931813  34.9918153   5.9006653
  64.7318283  30.8205683   7.9083993  64.6626563  29.8795623   7.7473123
  65.4938143  30.9107093   8.4806563  56.9224953  21.4260203  10.2340613
  56.7427793  20.5285953  10.5143373  56.5205033  21.9732073  10.9087563
  65.7623453  23.6276063   8.1352923  66.1388273  22.7547943   8.0226593
  65.6642963  23.9634763   7.2443363  59.8928463  22.0001693   3.5970363
  59.9995213  22.9005423   3.9039123  58.9820823  21.9519663   3.3065013
  69.5447573  21.1226503   5.0681263  70.3657193  20.6323073   5.1106743
  69.5781653  21.7124163   5.8213103  57.5411623  23.9220703   8.8422953
  58.2221733  24.1859073   9.4610353  57.2259673  23.0821573   9.1760963
  61.7336193  24.9688063   7.9295543  62.2414413  25.4669033   8.5700563
  62.2649433  24.1923263   7.7534903  60.0172293  19.6086623  12.1958963
  60.0190733  20.1259013  11.3904863  59.1876603  19.1316803  12.1728893
  66.4043383  29.7205933   3.6948863  65.7860653  30.1855383   3.1311583
  66.9166633  30.4133413   4.1118373  61.2675143  29.2481803  10.3732463
  60.9344523  29.8750723  11.0153533  61.4441823  29.7743683   9.5934133
  69.7809053  23.0626883   7.8408803  69.0764623  23.3511773   8.4211913
  70.1421213  23.8726993   7.4808363  59.6987623  21.3196583  10.2029413
  60.0404433  22.1638633   9.9083283  58.7603433  21.4680323  10.3194753
  60.4794243  31.2162603  12.1881643  61.0968243  31.8913683  11.9066093
  59.6187363  31.6250583  12.0969143  63.3815513  18.8078853   6.5274003
  63.6890493  18.2525743   5.8109503  62.4516213  18.9423313   6.3446993
  68.9330573  34.5246143   8.8181463  68.9457733  34.1208433   7.9503723
  68.3805793  35.2993433   8.7142893  70.2275993  31.2462363   3.9071633
  70.1172323  30.3036693   4.0321053  70.2244243  31.6078003   4.7934393
  68.3316013  29.4275983  10.1464073  68.7484803  29.2136093   9.3117533
  69.0555833  29.6848773  10.7172693  65.7696273  26.8727683   3.2634123
  64.8425553  26.8065063   3.4922593  65.9221093  27.8107813   3.1489363
  69.7993563  28.4347983   3.7669373  69.1805983  28.0967533   3.1195673
  69.7818013  27.7907743   4.4748563  69.2420123  24.6132523  11.1835183
  68.8291303  25.4386233  11.4375173  68.5096073  24.0277563  10.9911543
  61.3752913  27.3992423   6.0453853  60.9709913  26.6869673   5.5499753
  61.4616033  27.0545663   6.9341893  61.8434613  31.0859983   8.2093063
  61.5462903  30.4805453   7.5300843  62.7934433  31.1237293   8.0982423
  60.0881533  24.1735633   9.8252893  60.6396123  24.2830973   9.0506143
  60.6025043  24.5473233  10.5408123  69.9320223  34.6591853  11.8716163
  69.4550783  35.4664043  11.6788773  69.2482013  34.0070183  12.0242373
  60.9353043  30.8241673  14.8600863  60.0381573  31.0481643  15.1074263
  60.9605913  30.9476613  13.9112263  59.7624263  27.6954993  13.4358233
  59.6232033  28.5677793  13.8045633  58.8805623  27.3527803  13.2906173
  66.0853643  32.6130863   4.7423363  66.5249553  33.3555193   4.3278753
  66.0240533  32.8557433   5.6662323  61.5604613  33.6376693  15.6443383
  61.5320043  34.0419643  14.7771813  61.3969583  32.7087053  15.4814983
  58.0757543  26.2937403   3.5460503  57.9555143  27.0199493   2.9341773
  57.7658433  25.5240313   3.0688413  55.7142913  29.4652543   9.3529143
  55.7923333  29.6001313   8.4084863  56.3284593  28.7568433   9.5457263
  56.9590543  31.1652733   5.7635323  56.5518623  31.3067323   4.9088923
  57.8503553  30.8812893   5.5606533  66.7769423  35.3144643  12.6702373
  67.2914093  35.2252653  13.4724803  65.9338503  35.6604343  12.9630283
  61.2312203  35.3798513   3.8757993  61.0554683  34.4634053   3.6625793
  60.3767943  35.7385803   4.1155793  68.0199883  34.7350253   4.7332863
  68.4756833  33.9539633   5.0471483  68.3592403  35.4457073   5.2774043
  55.7702433  30.5066713  11.8923603  55.9333473  30.0372073  11.0742973
  56.2354883  29.9990273  12.5572443  60.5421203  19.6372473   6.9284173
  60.0989353  20.4182013   6.5968693  61.1006193  19.9602363   7.6355113
  64.8291013  22.5040993  12.5319493  64.3670383  22.7124013  13.3439433
  64.4269123  21.6900343  12.2290163  69.8295523  23.7249943  13.6616153
  68.9789113  23.4255693  13.9825223  69.6697313  23.9691953  12.7499973
  66.9245233  25.2251693  15.7614943  67.2498643  24.3915443  15.4217173
  67.7125563  25.7480213  15.9093273  62.5797103  20.1819803   8.7873773
  62.8769433  21.0882633   8.7065793  63.1282663  19.6938583   8.1733343
  60.3335423  24.7606043   4.6565423  60.1076343  24.5443213   5.5612043
  59.5527953  25.1934503   4.3111393  67.5633183  24.7669413   3.2556073
  66.9642073  25.4905213   3.0719693  68.1112793  24.7046193   2.4732523
  62.7734633  25.6591623  15.3225693  62.6778233  24.7186353  15.1726093
  63.6166613  25.8806693  14.9273763  66.1698053  23.4032953   5.2859353
  66.5627623  23.7205153   4.4728043  66.5314903  22.5244833   5.4003873
  57.9045173  22.0705293  13.4759473  57.5108563  22.9180503  13.6832253
  57.2163573  21.4331663  13.6668113  64.4790223  22.1540263  16.5456213
  63.7888543  21.9612463  17.1802303  65.2222523  22.4374903  17.0780513
  55.2062223  19.9933753   7.5089553  54.9175273  20.5636613   8.2214533
  55.9507983  19.5138203   7.8720783  66.7553193  25.9938703   9.3810133
  66.0234313  26.5025513   9.7300233  66.3577533  25.1768683   9.0798913
  63.1930583  22.6692903   7.7862623  63.1966643  22.2282853   6.9367163
  64.0881703  22.9910233   7.8934443  59.0432963  22.5519393   6.7456833
  58.7033013  23.0294623   7.5023883  58.2810283  22.0984513   6.3857933
  67.2179103  21.4472383   8.7933073  67.2351843  21.8981033   9.6374923
  66.9694683  20.5478023   9.0066513  70.6449853  18.8604563  14.6319453
  70.9695623  18.1294223  15.1577433  70.6806363  18.5418203  13.7300443
  57.3441413  29.8818143  14.0519413  56.9596203  29.2411813  14.6502373
  57.6553603  30.5854263  14.6214143  63.4938553  26.7294683   9.5328033
  63.8608683  26.2553253  10.2789373  63.3043613  27.6036253   9.8736373
  56.3579043  21.4738373   5.6621503  56.0725963  21.1094043   6.5000123
  56.2957903  20.7418833   5.0484643  61.2837923  25.7703323  11.8512243
  60.9794993  26.6495303  12.0762603  62.2384383  25.8303113  11.8869683
  59.8119713  29.9764313   2.4479093  59.0381973  29.4361933   2.2877813
  60.5414343  29.4570923   2.1096853  66.0317633  20.3667633   2.3834873
  65.2182243  19.8680803   2.3080183  65.8379583  21.2065883   1.9671223
  65.9526493  29.0438733  14.1274483  65.8863803  28.1234403  13.8732073
  65.3231633  29.1414173  14.8419123  59.8557113  29.6444693   6.0857903
  60.3735783  28.8412953   6.0314793  59.4041133  29.5823833   6.9274733
  57.3401653  26.6106063  12.9983603  56.9816593  27.2759913  13.5856943
  57.0456213  25.7789613  13.3696223  60.5414773  27.0690303  15.8823153
  60.2414913  27.2147483  14.9850973  61.3126013  26.5095593  15.7896543
  65.8843223  31.8659303  13.8778283  65.8987763  30.9340263  13.6597193
  65.1768323  31.9519063  14.5168053  67.6254023  30.2326813   6.7230713
  67.9777843  29.6354943   6.0632083  66.7416353  29.9071043   6.8938963
  63.7117303  30.9924503   4.1301123  64.3988433  31.5393713   4.5108713
  62.9249723  31.5365233   4.1650733  63.0144513  27.9970533   3.7426483
  63.4707293  28.8075783   3.9686673  62.6632723  27.6793673   4.5744973
  65.3177123  33.5076873  10.9718783  65.9619343  33.7136253  11.6492203
  65.6806563  32.7465273  10.5189633  58.9156293  18.3408183   4.2149003
  58.7870923  18.3326083   5.1633923  58.0918313  18.6791273   3.8640013
  66.5909203  31.5109223   9.6896233  67.2331433  30.8102383   9.8028403
  67.1158553  32.2907663   9.5093123  68.3646823  32.3104123  12.8932293
  68.7003063  32.8970813  13.5710213  67.4447163  32.1796833  13.1230083
  55.9150223  20.0999303  13.6755703  55.2008743  20.2996223  14.2808313
  56.3345263  19.3238873  14.0470503  56.2022813  34.0879563  14.6622233
  56.3113933  33.1474303  14.5217623  55.5503373  34.3534313  14.0135963
  64.1935403  32.3595453  16.0620353  63.8732273  31.6404693  16.6066043
  63.5193763  33.0350523  16.1356413  67.4089003  22.5921613  11.4257153
  67.7769823  21.7716823  11.7536723  66.5487203  22.6523503  11.8412803
  62.7435063  23.8264503   3.6502593  62.0351213  24.2950843   4.0916203
  63.0279543  23.1686513   4.2847783  64.3690993  25.2461203  11.6495123
  64.8676243  25.7207023  12.3146973  64.5113943  24.3224723  11.8565153
  66.7750493  20.5515163   5.0898383  66.6518273  20.5701293   4.1407893
  67.7235053  20.5994103   5.2096783  63.8627283  35.7870463   4.3626363
  64.1168783  35.7491853   3.4405733  62.9139763  35.6603793   4.3554613
  69.8679863  26.7062343   5.9384873  68.9270003  26.7212573   6.1132563
  70.1823933  25.9198303   6.3845173  59.3422973  35.9702403   7.2856263
  60.0785453  35.4217863   7.5564833  59.7263893  36.8358413   7.1462253
  56.2268453  32.0375973   3.1597773  55.3008233  32.2797113   3.1503183
  56.6924883  32.8650233   3.0382523  58.3481253  35.1548473  16.4741843
  59.1493983  35.4760523  16.8877243  57.8333073  34.7944053  17.1961753
  67.1845883  31.2628343  16.4217253  66.5784043  31.2859943  15.6813003
  66.8799993  30.5311383  16.9584503  68.6146253  34.9908633  15.0326663
  69.5668003  34.9066653  14.9826903  68.4674473  35.6550343  15.7060453
  56.0679063  27.6421933  15.4177893  56.5718083  27.0629213  15.9894123
  55.3286483  27.9262163  15.9554263  63.1217003  29.0492923  14.9513413
  62.3562673  29.6177923  14.8668083  63.3032963  28.7569133  14.0581643
  70.2640353  30.7798253  15.5088433  71.0049823  31.1174013  15.0055893
  69.5013033  30.9490313  14.9558203  58.1002143  25.7851523  16.3127963
  58.1407483  25.4865393  17.2213193  58.9547643  26.1859133  16.1535483
  60.0407953  24.3643623  14.2802453  59.5104413  23.8734573  13.6525793
  60.7096023  24.7927823  13.7460383  68.9386013  28.8313083  14.0443643
  69.3527033  28.9858163  14.8934063  68.0037013  28.9568303  14.2069423
  69.4108183  26.1709243  16.0482793  69.9928953  25.4161563  15.9603273
  69.5869953  26.7016683  15.2714273  60.5280253  21.3305993  14.3599743
  60.4337123  20.7126743  13.6350613  59.9477643  22.0572283  14.1329653
  63.2941693  19.8879233  11.3927133  62.8458993  19.9103493  10.5472683
  62.6606893  19.4898253  11.9897433  63.7001243  28.7833563  12.0139573
  64.1189353  29.6266293  11.8415813  62.7809873  28.9205603  11.7846353
  66.0365143  26.5149743  13.3977413  66.1561353  25.9190883  14.1372253
  66.8959143  26.5519433  12.9778713  68.3753043  27.0686933  11.9739923
  67.8488263  27.5929553  11.3705063  68.7184383  27.7014323  12.6049653
  61.5508663  35.0886573  13.1297303  61.0129753  35.8132633  12.8106003
  61.8042623  34.6116913  12.3394643  62.8033913  23.0571093  14.6553233
  63.3933603  22.7486943  15.3431053  61.9854153  22.5850843  14.8113133
  67.6227343  22.6736903  14.8886253  66.9342863  22.0118443  14.8236243
  68.3433363  22.2275173  15.3334713  64.4070873  36.3237783  13.3883953
  64.3329573  37.2272923  13.6956323  63.5049713  36.0049683  13.3606023
  55.8098163  33.6512373   6.6917573  56.1401173  32.7833433   6.4596213
  56.2389163  33.8570893   7.5222533  60.4060083  31.9821383   4.3519543
  60.1055623  31.8586353   5.2523453  60.2997573  31.1229973   3.9435273
  56.2988373  34.5182963   9.4299203  55.8619363  34.6983763  10.2623353
  56.8666053  35.2757583   9.2880923  56.1312803  27.0303193   5.7888083
  55.4761643  26.7614833   5.1447783  56.9690753  26.9207673   5.3390063
  70.6202193  30.7451943  11.8152673  69.8062033  31.1749103  12.0778463
  71.0276393  31.3570353  11.2021723  57.1688733  27.4155763  10.3291423
  57.5361773  27.3283163  11.2087443  56.5999553  26.6522313  10.2298283
  56.7204733  24.3264853  14.2349843  55.8260783  24.2931613  14.5743553
  57.2602283  24.5251643  15.0001093  57.2244443  18.6013183   8.5833063
  57.8720633  18.0510563   8.1428223  57.6446283  18.8556333   9.4048873
  56.9776443  18.7568853  11.3258383  56.6291263  19.2132673  12.0916563
  56.6464143  17.8625983  11.4080813  58.5840813  31.9288453  15.4911573
  58.5410443  31.5581363  16.3726033  58.7151823  32.8666023  15.6313393
  62.2846843  33.4848043  11.0921293  62.0438203  33.7522603  10.2051813
  63.2249483  33.6553773  11.1472153  64.4901263  19.9480733  14.8477803
  64.4290153  20.5402563  15.5973213  65.4301643  19.8406693  14.7028063
  67.1275823  19.6050793  14.4870093  67.7416233  19.9230083  13.8251173
  67.6725383  19.1199383  15.1065953  57.6497083  18.2845053  14.6009153
  58.1980073  18.1033103  13.8375263  57.7152393  17.4939163  15.1365463
  58.4228843  34.8750703  12.6109353  57.8289163  34.7435403  13.3499393
  58.4152683  34.0388843  12.1451453  67.8683863  18.1682933  10.8139383
  66.9943703  18.5018043  10.6112313  67.7594613  17.6956113  11.6391253
  68.7755843  20.3753803  12.1981103  68.4469203  19.5605563  11.8182833
  69.7238143  20.3323613  12.0746793  58.0541073  32.2409083  11.5617393
  57.3275133  31.6214373  11.4943343  58.1150223  32.6349693  10.6915473
  61.6586173  34.4554083   8.3466803  62.1751193  33.8441443   7.8215063
  62.3083553  34.9582863   8.8377813  64.3981673  35.3462573   9.1735783
  64.6859483  35.0916873   8.2968793  64.9104893  34.7939933   9.7641353
  65.6158683  19.0852773   9.7532293  64.8330473  19.5598273  10.0329053
  65.3221613  18.1807603   9.6445473  70.1679753  19.7875873   7.7981383
  70.6087843  19.7320973   6.9502983  69.8987343  20.7033883   7.8691563
  56.3371073  35.5583473   4.7714153  56.1693113  34.9254153   5.4696043
  55.4705583  35.7642873   4.4208343  63.5012903  21.5039523   5.2648323
  62.6887413  21.1296413   4.9244203  64.0054543  20.7484603   5.5669513
  68.0037883  18.1681973   6.5031393  68.6067253  18.7402183   6.9779913
  67.2630873  18.7321413   6.2805293  61.5262083  19.6539443   3.8693373
  60.8964823  18.9526753   4.0363503  60.9867223  20.4143573   3.6526533
  64.4654033  36.2678673  16.5403983  65.3921343  36.0322943  16.5839943
  64.4504463  37.0950673  16.0590013  61.6517643  18.9323423  16.3045863
  61.3701913  19.4357023  15.5406683  62.0337343  18.1345173  15.9387993
  68.2533103  18.3477003  16.8826333  68.1398553  18.6671613  17.7777853
  69.0702843  18.7489513  16.5863613  67.1591253   7.5925983  62.3435033
  67.0785303   6.6780593  62.0726743  66.7455673   8.0893053  61.6374743
  65.2909293   9.3705003  64.2244303  64.5151393   8.8905443  64.5142873
  65.9422223   8.6910653  64.0500463  59.3075123   9.6824813  65.1020063
  58.4760003   9.4273523  65.5016573  59.9156103   9.7535583  65.8377983
  69.3116723  13.7765193  63.0043433  68.8498253  13.0052433  63.3330603
  70.1242273  13.8031263  63.5095883  59.2876383  13.7164903  65.2978083
  59.5904423  12.8262643  65.1188303  60.0319973  14.2735123  65.0700333
  57.7167073   4.6426703  58.8862453  56.8283773   4.9842673  58.7842333
  58.0008263   4.4427023  57.9943283  55.6800083   7.2432353  64.7702153
  56.2516193   6.4754553  64.7705793  55.6801623   7.5421113  63.8608763
  65.5380033  16.0623203  62.6247423  64.9191473  16.5180703  62.0541863
  66.3931813  16.2174663  62.2237123  64.7318283  12.0462193  64.2314463
  64.6626563  11.1052133  64.0703593  65.4938143  12.1363603  64.8037033
  56.9224953   2.6516713  66.5571083  56.7427793   1.7542463  66.8373843
  56.5205033   3.1988583  67.2318033  65.7623453   4.8532573  64.4583393
  66.1388273   3.9804453  64.3457063  65.6642963   5.1891273  63.5673833
  59.8928463   3.2258203  59.9200833  59.9995213   4.1261933  60.2269593
  58.9820823   3.1776173  59.6295483  69.5447573   2.3483013  61.3911733
  70.3657193   1.8579583  61.4337213  69.5781653   2.9380673  62.1443573
  57.5411623   5.1477213  65.1653423  58.2221733   5.4115583  65.7840823
  57.2259673   4.3078083  65.4991433  61.7336193   6.1944573  64.2526013
  62.2414413   6.6925543  64.8931033  62.2649433   5.4179773  64.0765373
  66.4043383  10.9462443  60.0179333  65.7860653  11.4111893  59.4542053
  66.9166633  11.6389923  60.4348843  61.2675143  10.4738313  66.6962933
  60.9344523  11.1007233  67.3384003  61.4441823  11.0000193  65.9164603
  69.7809053   4.2883393  64.1639273  69.0764623   4.5768283  64.7442383
  70.1421213   5.0983503  63.8038833  59.6987623   2.5453093  66.5259883
  60.0404433   3.3895143  66.2313753  58.7603433   2.6936833  66.6425223
  60.4794243  12.4419113  68.5112113  61.0968243  13.1170193  68.2296563
  59.6187363  12.8507093  68.4199613  55.7726583  11.6318973  57.3918963
  55.3954563  12.1206073  56.6603863  56.0299653  12.3044253  58.0225493
  68.9330573  15.7502653  65.1411933  68.9457733  15.3464943  64.2734193
  68.3805793  16.5249943  65.0373363  70.2275993  12.4718873  60.2302103
  70.1172323  11.5293203  60.3551523  70.2244243  12.8334513  61.1164863
  68.3316013  10.6532493  66.4694543  68.7484803  10.4392603  65.6348003
  69.0555833  10.9105283  67.0403163  65.7696273   8.0984193  59.5864593
  64.8425553   8.0321573  59.8153063  65.9221093   9.0364323  59.4719833
  65.7565353   4.3701193  56.5831753  64.8169023   4.5315153  56.6684213
  66.0748613   5.0886873  56.0367743  69.7993563   9.6604493  60.0899843
  69.1805983   9.3224043  59.4426143  69.7818013   9.0164253  60.7979033
  69.2420123   5.8389033  67.5065653  68.8291303   6.6642743  67.7605643
  68.5096073   5.2534073  67.3142013  61.3752913   8.6248933  62.3684323
  60.9709913   7.9126183  61.8730223  61.4616033   8.2802173  63.2572363
  61.8434613  12.3116493  64.5323533  61.5462903  11.7061963  63.8531313
  62.7934433  12.3493803  64.4212893  60.0881533   5.3992143  66.1483363
  60.6396123   5.5087483  65.3736613  60.6025043   5.7729743  66.8638593
  69.9320223  15.8848363  68.1946633  69.4550783  16.6920553  68.0019243
  69.2482013  15.2326693  68.3472843  67.9758263   8.8991303  57.0972593
  68.4151543   8.0613733  56.9510413  68.6886683   9.5320703  57.1836733
  66.0853643  13.8387373  61.0653833  66.5249553  14.5811703  60.6509223
  66.0240533  14.0813943  61.9892793  58.0757543   7.5193913  59.8690973
  57.9555143   8.2456003  59.2572243  57.7658433   6.7496823  59.3918883
  55.7142913  10.6909053  65.6759613  55.7923333  10.8257823  64.7315333
  56.3284593   9.9824943  65.8687733  56.9590543  12.3909243  62.0865793
  56.5518623  12.5323833  61.2319393  57.8503553  12.1069403  61.8837003
  66.7769423  16.5401153  68.9932843  67.2914093  16.4509163  69.7955273
  65.9338503  16.8860853  69.2860753  68.7523823  16.8256493  58.4216843
  68.5924963  16.5359433  59.3198673  68.5870533  16.0496623  57.8862073
  61.2312203  16.6055023  60.1988463  61.0554683  15.6890563  59.9856263
  60.3767943  16.9642313  60.4386263  68.4549953  14.3344053  56.9814843
  67.7615113  14.3321343  56.3217123  69.1972813  13.9103373  56.5509013
  68.0199883  15.9606763  61.0563333  68.4756833  15.1796143  61.3701953
  68.3592403  16.6713583  61.6004513  55.7702433  11.7323223  68.2154073
  55.9333473  11.2628583  67.3973443  56.2354883  11.2246783  68.8802913
  64.8291013   3.7297503  68.8549963  64.3670383   3.9380523  69.6669903
  64.4269123   2.9156853  68.5520633  60.3335423   5.9862553  60.9795893
  60.1076343   5.7699723  61.8842513  59.5527953   6.4191013  60.6341863
  67.5633183   5.9925923  59.5786543  66.9642073   6.7161723  59.3950163
  68.1112793   5.9302703  58.7962993  66.1698053   4.6289463  61.6089823
  66.5627623   4.9461663  60.7958513  66.5314903   3.7501343  61.7234343
  55.3932453   5.1610383  55.0422743  55.3107123   6.1041143  55.1837733
  55.0415513   5.0185293  54.1635093  66.7553193   7.2195213  65.7040603
  66.0234313   7.7282023  66.0530703  66.3577533   6.4025193  65.4029383
  63.1930583   3.8949413  64.1093093  63.1966643   3.4539363  63.2597633
  64.0881703   4.2166743  64.2164913  59.0432963   3.7775903  63.0687303
  58.7033013   4.2551133  63.8254353  58.2810283   3.3241023  62.7088403
  63.2550733   4.8961493  57.0999853  63.3763553   4.8547973  58.0485673
  62.8699243   5.7585643  56.9446583  67.2179103   2.6728893  65.1163543
  67.2351843   3.1237543  65.9605393  66.9694683   1.7734533  65.3296983
  62.2672233   7.2062633  56.4983153  61.6989133   6.7580883  55.8719063
  62.9761233   7.5655413  55.9648303  63.4938553   7.9551193  65.8558503
  63.8608683   7.4809763  66.6019843  63.3043613   8.8292763  66.1966843
  56.3579043   2.6994883  61.9851973  56.0725963   2.3350553  62.8230593
  56.2957903   1.9675343  61.3715113  61.2837923   6.9959833  68.1742713
  60.9794993   7.8751813  68.3993073  62.2384383   7.0559623  68.2100153
  59.8119713  11.2020823  58.7709563  59.0381973  10.6618443  58.6108283
  60.5414343  10.6827433  58.4327323  68.7466023   5.9643793  57.0027503
  69.6345643   6.2761023  56.8278843  68.7171113   5.0916043  56.6108083
  59.8557113  10.8701203  62.4088373  60.3735783  10.0669463  62.3545263
  59.4041133  10.8080343  63.2505203  64.7426613  12.1367483  57.6815673
  65.0842313  12.8809713  57.1858993  63.9139323  12.4498603  58.0440503
  67.6254023  11.4583323  63.0461183  67.9777843  10.8611453  62.3862553
  66.7416353  11.1327553  63.2169433  63.7117303  12.2181013  60.4531593
  64.3988433  12.7650223  60.8339183  62.9249723  12.7621743  60.4881203
  55.8509703   7.8353833  55.9448673  56.7204553   8.1178633  56.2284593
  55.3600023   8.6489703  55.8297483  63.0144513   9.2227043  60.0656953
  63.4707293  10.0332293  60.2917143  62.6632723   8.9050183  60.8975443
  65.3177123  14.7333383  67.2949253  65.9619343  14.9392763  67.9722673
  65.6806563  13.9721783  66.8420103  66.5909203  12.7365733  66.0126703
  67.2331433  12.0358893  66.1258873  67.1158553  13.5164173  65.8323593
  70.4364923  13.0214353  55.7365843  70.2102503  12.3044793  56.3290483
  70.0461123  12.7726793  54.8987593  56.2180953  17.0481213  56.5110303
  56.5778593  17.6470553  55.8567573  56.0773293  17.5941103  57.2845333
  70.0181173  10.9386293  57.3980003  69.7302873  11.3998983  58.1857883
  70.8133343  10.4784063  57.6664223  62.2349573  14.4312413  57.3283973
  62.2259673  15.1642103  56.7128483  61.3147933  14.1843993  57.4210933
  57.8356213   9.6527303  58.0730733  57.2284163  10.3926203  58.0826033
  58.3105563   9.7426663  57.2468933  67.4089003   3.8178123  67.7487623
  67.7769823   2.9973333  68.0767193  66.5487203   3.8780013  68.1643273
  70.7751033   2.7735063  58.5575183  70.1464193   2.8780733  57.8433413
  70.2802953   2.9931843  59.3469063  65.2209173  14.4940653  55.9909163
  65.3221153  14.2904643  55.0611143  64.3210913  14.2398933  56.1956943
  62.7435063   5.0521013  59.9733063  62.0351213   5.5207353  60.4146673
  63.0279543   4.3943023  60.6078253  64.3690993   6.4717713  67.9725593
  64.8676243   6.9463533  68.6377443  64.5113943   5.5481233  68.1795623
  66.7750493   1.7771673  61.4128853  66.6518273   1.7957803  60.4638363
  67.7235053   1.8250613  61.5327253  63.8627283  17.0126973  60.6856833
  64.1168783  16.9748363  59.7636203  62.9139763  16.8860303  60.6785083
  60.9470083   3.3606093  57.3483773  61.7960613   3.7976243  57.2823963
  60.5801353   3.6726353  58.1755833  69.8679863   7.9318853  62.2615343
  68.9270003   7.9469083  62.4363033  70.1823933   7.1454813  62.7075643
  59.8461503   9.6138453  55.8219303  60.6124773   9.5019813  56.3844733
  59.9236193   8.9176423  55.1696073  58.5408263   7.0463523  56.5052193
  58.6211853   6.0991033  56.6169593  59.4328013   7.3770403  56.6112853
  59.3422973  17.1958913  63.6086733  60.0785453  16.6474373  63.8795303
  59.7263893  18.0614923  63.4692723  56.2268453  13.2632483  59.4828243
  55.3008233  13.5053623  59.4733653  56.6924883  14.0906743  59.3612993
  62.4525283  16.3689223  55.4312303  63.2453893  16.6578053  54.9794093
  61.9329633  15.9381393  54.7524783  62.9702683  11.5892633  55.2954653
  62.8653323  10.9744983  56.0216033  62.8026903  11.0658523  54.5117663
  66.2105413  10.6512663  55.8996643  65.6615513  11.0981963  56.5439383
  66.8324673  10.1461913  56.4234313  61.8780533   9.6103583  57.7961943
  62.2996953   9.4443453  58.6393333  62.0031373   8.8003813  57.3017083
  64.3908173   8.6341193  55.0439043  64.9113833   7.9190213  54.6780193
  65.0376573   9.2727063  55.3439553  63.7001243  10.0090073  68.3370043
  64.1189353  10.8522803  68.1646283  62.7809873  10.1462113  68.1076823
  68.3753043   8.2943443  68.2970393  67.8488263   8.8186063  67.6935533
  68.7184383   8.9270833  68.9280123  60.7739433   5.6836813  54.7420103
  60.5728493   4.8204173  55.1033443  60.6031483   5.5970173  53.8041703
  61.5508663  16.3143083  69.4527773  61.0129753  17.0389143  69.1336473
  61.8042623  15.8373423  68.6625113  59.5722233   2.7837433  54.7297983
  59.8748133   2.7904863  53.8217133  60.3116823   2.4335293  55.2265643
  64.9556203  16.7152803  57.3340783  65.8506993  17.0537773  57.3559543
  64.9873833  15.9932213  56.7065063  58.5952363  12.0879853  55.5627783
  59.0327233  12.6309523  56.2185363  59.0800093  11.2626803  55.5724123
  55.8098163  14.8768883  63.0148043  56.1401173  14.0089943  62.7826683
  56.2389163  15.0827403  63.8453003  60.4060083  13.2077893  60.6750013
  60.1055623  13.0842863  61.5753923  60.2997573  12.3486483  60.2665743
  56.2988373  15.7439473  65.7529673  55.8619363  15.9240273  66.5853823
  56.8666053  16.5014093  65.6111393  56.1312803   8.2559703  62.1118553
  55.4761643   7.9871343  61.4678253  56.9690753   8.1464183  61.6620533
  70.6202193  11.9708453  68.1383143  69.8062033  12.4005613  68.4008933
  71.0276393  12.5826863  67.5252193  69.0803243   3.0500993  56.3337043
  69.4988123   2.8631973  55.4933703  68.7739303   2.1980043  56.6439973
  57.1688733   8.6412273  66.6521893  57.5361773   8.5539673  67.5317913
  56.5999553   7.8778823  66.5528753  55.3450883   5.4658633  58.0543883
  54.4414963   5.7288833  57.8795543  55.8291503   5.7369803  57.2743843
  57.8878093   4.5224173  55.9638263  58.5969793   4.1007393  55.4785543
  57.1718033   4.5899403  55.3321613  62.2846843  14.7104553  67.4151763
  62.0438203  14.9779113  66.5282283  63.2249483  14.8810283  67.4702623
  58.4228843  16.1007213  68.9339823  57.8289163  15.9691913  69.6729863
  58.4152683  15.2645353  68.4681923  58.0541073  13.4665593  67.8847863
  57.3275133  12.8470883  67.8173813  58.1150223  13.8606203  67.0145943
  61.6586173  15.6810593  64.6697273  62.1751193  15.0697953  64.1445533
  62.3083553  16.1839373  65.1608283  64.3981673  16.5719083  65.4966253
  64.6859483  16.3173383  64.6199263  64.9104893  16.0196443  66.0871823
  56.3371073  16.7839983  61.0944623  56.1693113  16.1510663  61.7926513
  55.4705583  16.9899383  60.7438813  63.5012903   2.7296033  61.5878793
  62.6887413   2.3552923  61.2474673  64.0054543   1.9741113  61.8899983
  57.9433773  15.4773213  58.5394763  57.4181393  15.8581243  57.8356723
  57.8678353  16.1023983  59.2604473  60.5426743  17.4255593  57.4144013
  61.2745563  17.1414873  56.8667903  60.8020413  17.1868873  58.3043393
  59.7041533  13.5420323  57.4190343  59.0750413  14.0105423  57.9676173
  59.8189363  12.6969543  57.8536533  67.1591253   7.5925983  43.5691543
  67.0785303   6.6780593  43.2983253  66.7455673   8.0893053  42.8631253
  65.2909293   9.3705003  45.4500813  64.5151393   8.8905443  45.7399383
  65.9422223   8.6910653  45.2756973  59.3075123   9.6824813  46.3276573
  58.4760003   9.4273523  46.7273083  59.9156103   9.7535583  47.0634493
  69.3116723  13.7765193  44.2299943  68.8498253  13.0052433  44.5587113
  70.1242273  13.8031263  44.7352393  59.2876383  13.7164903  46.5234593
  59.5904423  12.8262643  46.3444813  60.0319973  14.2735123  46.2956843
  57.7167073   4.6426703  40.1118963  56.8283773   4.9842673  40.0098843
  58.0008263   4.4427023  39.2199793  55.6800083   7.2432353  45.9958663
  56.2516193   6.4754553  45.9962303  55.6801623   7.5421113  45.0865273
  65.5380033  16.0623203  43.8503933  64.9191473  16.5180703  43.2798373
  66.3931813  16.2174663  43.4493633  64.7318283  12.0462193  45.4570973
  64.6626563  11.1052133  45.2960103  65.4938143  12.1363603  46.0293543
  56.9224953   2.6516713  47.7827593  56.7427793   1.7542463  48.0630353
  56.5205033   3.1988583  48.4574543  65.7623453   4.8532573  45.6839903
  66.1388273   3.9804453  45.5713573  65.6642963   5.1891273  44.7930343
  59.8928463   3.2258203  41.1457343  59.9995213   4.1261933  41.4526103
  58.9820823   3.1776173  40.8551993  69.5447573   2.3483013  42.6168243
  70.3657193   1.8579583  42.6593723  69.5781653   2.9380673  43.3700083
  57.5411623   5.1477213  46.3909933  58.2221733   5.4115583  47.0097333
  57.2259673   4.3078083  46.7247943  61.7336193   6.1944573  45.4782523
  62.2414413   6.6925543  46.1187543  62.2649433   5.4179773  45.3021883
  66.4043383  10.9462443  41.2435843  65.7860653  11.4111893  40.6798563
  66.9166633  11.6389923  41.6605353  61.2675143  10.4738313  47.9219443
  60.9344523  11.1007233  48.5640513  61.4441823  11.0000193  47.1421113
  69.7809053   4.2883393  45.3895783  69.0764623   4.5768283  45.9698893
  70.1421213   5.0983503  45.0295343  59.6987623   2.5453093  47.7516393
  60.0404433   3.3895143  47.4570263  58.7603433   2.6936833  47.8681733
  60.4794243  12.4419113  49.7368623  61.0968243  13.1170193  49.4553073
  59.6187363  12.8507093  49.6456123  55.7726583  11.6318973  38.6175473
  55.3954563  12.1206073  37.8860373  56.0299653  12.3044253  39.2482003
  68.9330573  15.7502653  46.3668443  68.9457733  15.3464943  45.4990703
  68.3805793  16.5249943  46.2629873  70.2275993  12.4718873  41.4558613
  70.1172323  11.5293203  41.5808033  70.2244243  12.8334513  42.3421373
  68.3316013  10.6532493  47.6951053  68.7484803  10.4392603  46.8604513
  69.0555833  10.9105283  48.2659673  65.7696273   8.0984193  40.8121103
  64.8425553   8.0321573  41.0409573  65.9221093   9.0364323  40.6976343
  65.7565353   4.3701193  37.8088263  64.8169023   4.5315153  37.8940723
  66.0748613   5.0886873  37.2624253  69.7993563   9.6604493  41.3156353
  69.1805983   9.3224043  40.6682653  69.7818013   9.0164253  42.0235543
  69.2420123   5.8389033  48.7322163  68.8291303   6.6642743  48.9862153
  68.5096073   5.2534073  48.5398523  61.3752913   8.6248933  43.5940833
  60.9709913   7.9126183  43.0986733  61.4616033   8.2802173  44.4828873
  61.8434613  12.3116493  45.7580043  61.5462903  11.7061963  45.0787823
  62.7934433  12.3493803  45.6469403  60.0881533   5.3992143  47.3739873
  60.6396123   5.5087483  46.5993123  60.6025043   5.7729743  48.0895103
  69.9320223  15.8848363  49.4203143  69.4550783  16.6920553  49.2275753
  69.2482013  15.2326693  49.5729353  60.9353043  12.0498183  52.4087843
  60.0381573  12.2738153  52.6561243  60.9605913  12.1733123  51.4599243
  67.9758263   8.8991303  38.3229103  68.4151543   8.0613733  38.1766923
  68.6886683   9.5320703  38.4093243  59.7624263   8.9211503  50.9845213
  59.6232033   9.7934303  51.3532613  58.8805623   8.5784313  50.8393153
  66.0853643  13.8387373  42.2910343  66.5249553  14.5811703  41.8765733
  66.0240533  14.0813943  43.2149303  61.5604613  14.8633203  53.1930363
  61.5320043  15.2676153  52.3258793  61.3969583  13.9343563  53.0301963
  58.0757543   7.5193913  41.0947483  57.9555143   8.2456003  40.4828753
  57.7658433   6.7496823  40.6175393  55.7142913  10.6909053  46.9016123
  55.7923333  10.8257823  45.9571843  56.3284593   9.9824943  47.0944243
  56.9590543  12.3909243  43.3122303  56.5518623  12.5323833  42.4575903
  57.8503553  12.1069403  43.1093513  66.7769423  16.5401153  50.2189353
  67.2914093  16.4509163  51.0211783  65.9338503  16.8860853  50.5117263
  68.7523823  16.8256493  39.6473353  68.5924963  16.5359433  40.5455183
  68.5870533  16.0496623  39.1118583  61.2312203  16.6055023  41.4244973
  61.0554683  15.6890563  41.2112773  60.3767943  16.9642313  41.6642773
  68.4549953  14.3344053  38.2071353  67.7615113  14.3321343  37.5473633
  69.1972813  13.9103373  37.7765523  68.0199883  15.9606763  42.2819843
  68.4756833  15.1796143  42.5958463  68.3592403  16.6713583  42.8261023
  55.7702433  11.7323223  49.4410583  55.9333473  11.2628583  48.6229953
  56.2354883  11.2246783  50.1059423  64.8291013   3.7297503  50.0806473
  64.3670383   3.9380523  50.8926413  64.4269123   2.9156853  49.7777143
  69.8295523   4.9506453  51.2103133  68.9789113   4.6512203  51.5312203
  69.6697313   5.1948463  50.2986953  66.9245233   6.4508203  53.3101923
  67.2498643   5.6171953  52.9704153  67.7125563   6.9736723  53.4580253
  60.3335423   5.9862553  42.2052403  60.1076343   5.7699723  43.1099023
  59.5527953   6.4191013  41.8598373  67.5633183   5.9925923  40.8043053
  66.9642073   6.7161723  40.6206673  68.1112793   5.9302703  40.0219503
  62.7734633   6.8848133  52.8712673  62.6778233   5.9442863  52.7213073
  63.6166613   7.1063203  52.4760743  66.1698053   4.6289463  42.8346333
  66.5627623   4.9461663  42.0215023  66.5314903   3.7501343  42.9490853
  57.9045173   3.2961803  51.0246453  57.5108563   4.1437013  51.2319233
  57.2163573   2.6588173  51.2155093  64.4790223   3.3796773  54.0943193
  63.7888543   3.1868973  54.7289283  65.2222523   3.6631413  54.6267493
  55.3932453   5.1610383  36.2679253  55.3107123   6.1041143  36.4094243
  55.0415513   5.0185293  35.3891603  66.7553193   7.2195213  46.9297113
  66.0234313   7.7282023  47.2787213  66.3577533   6.4025193  46.6285893
  63.1930583   3.8949413  45.3349603  63.1966643   3.4539363  44.4854143
  64.0881703   4.2166743  45.4421423  59.0432963   3.7775903  44.2943813
  58.7033013   4.2551133  45.0510863  58.2810283   3.3241023  43.9344913
  63.2550733   4.8961493  38.3256363  63.3763553   4.8547973  39.2742183
  62.8699243   5.7585643  38.1703093  67.2179103   2.6728893  46.3420053
  67.2351843   3.1237543  47.1861903  66.9694683   1.7734533  46.5553493
  62.2672233   7.2062633  37.7239663  61.6989133   6.7580883  37.0975573
  62.9761233   7.5655413  37.1904813  57.3441413  11.1074653  51.6006393
  56.9596203  10.4668323  52.1989353  57.6553603  11.8110773  52.1701123
  63.4938553   7.9551193  47.0815013  63.8608683   7.4809763  47.8276353
  63.3043613   8.8292763  47.4223353  56.3579043   2.6994883  43.2108483
  56.0725963   2.3350553  44.0487103  56.2957903   1.9675343  42.5971623
  61.2837923   6.9959833  49.3999223  60.9794993   7.8751813  49.6249583
  62.2384383   7.0559623  49.4356663  59.8119713  11.2020823  39.9966073
  59.0381973  10.6618443  39.8364793  60.5414343  10.6827433  39.6583833
  65.9526493  10.2695243  51.6761463  65.8863803   9.3490913  51.4219053
  65.3231633  10.3670683  52.3906103  68.7466023   5.9643793  38.2284013
  69.6345643   6.2761023  38.0535353  68.7171113   5.0916043  37.8364593
  59.8557113  10.8701203  43.6344883  60.3735783  10.0669463  43.5801773
  59.4041133  10.8080343  44.4761713  64.7426613  12.1367483  38.9072183
  65.0842313  12.8809713  38.4115503  63.9139323  12.4498603  39.2697013
  57.3401653   7.8362573  50.5470583  56.9816593   8.5016423  51.1343923
  57.0456213   7.0046123  50.9183203  60.5414773   8.2946813  53.4310133
  60.2414913   8.4403993  52.5337953  61.3126013   7.7352103  53.3383523
  65.8843223  13.0915813  51.4265263  65.8987763  12.1596773  51.2084173
  65.1768323  13.1775573  52.0655033  67.6254023  11.4583323  44.2717693
  67.9777843  10.8611453  43.6119063  66.7416353  11.1327553  44.4425943
  63.7117303  12.2181013  41.6788103  64.3988433  12.7650223  42.0595693
  62.9249723  12.7621743  41.7137713  55.8509703   7.8353833  37.1705183
  56.7204553   8.1178633  37.4541103  55.3600023   8.6489703  37.0553993
  63.0144513   9.2227043  41.2913463  63.4707293  10.0332293  41.5173653
  62.6632723   8.9050183  42.1231953  65.3177123  14.7333383  48.5205763
  65.9619343  14.9392763  49.1979183  65.6806563  13.9721783  48.0676613
  66.5909203  12.7365733  47.2383213  67.2331433  12.0358893  47.3515383
  67.1158553  13.5164173  47.0580103  70.4364923  13.0214353  36.9622353
  70.2102503  12.3044793  37.5546993  70.0461123  12.7726793  36.1244103
  68.3646823  13.5360633  50.4419273  68.7003063  14.1227323  51.1197193
  67.4447163  13.4053343  50.6717063  56.2180953  17.0481213  37.7366813
  56.5778593  17.6470553  37.0824083  56.0773293  17.5941103  38.5101843
  70.0181173  10.9386293  38.6236513  69.7302873  11.3998983  39.4114393
  70.8133343  10.4784063  38.8920733  56.2022813  15.3136073  52.2109213
  56.3113933  14.3730813  52.0704603  55.5503373  15.5790823  51.5622943
  64.1935403  13.5851963  53.6107333  63.8732273  12.8661203  54.1553023
  63.5193763  14.2607033  53.6843393  62.2349573  14.4312413  38.5540483
  62.2259673  15.1642103  37.9384993  61.3147933  14.1843993  38.6467443
  57.8356213   9.6527303  39.2987243  57.2284163  10.3926203  39.3082543
  58.3105563   9.7426663  38.4725443  67.4089003   3.8178123  48.9744133
  67.7769823   2.9973333  49.3023703  66.5487203   3.8780013  49.3899783
  70.7751033   2.7735063  39.7831693  70.1464193   2.8780733  39.0689923
  70.2802953   2.9931843  40.5725573  65.2209173  14.4940653  37.2165673
  65.3221153  14.2904643  36.2867653  64.3210913  14.2398933  37.4213453
  62.7435063   5.0521013  41.1989573  62.0351213   5.5207353  41.6403183
  63.0279543   4.3943023  41.8334763  64.3690993   6.4717713  49.1982103
  64.8676243   6.9463533  49.8633953  64.5113943   5.5481233  49.4052133
  66.7750493   1.7771673  42.6385363  66.6518273   1.7957803  41.6894873
  67.7235053   1.8250613  42.7583763  63.8627283  17.0126973  41.9113343
  64.1168783  16.9748363  40.9892713  62.9139763  16.8860303  41.9041593
  60.9470083   3.3606093  38.5740283  61.7960613   3.7976243  38.5080473
  60.5801353   3.6726353  39.4012343  69.8679863   7.9318853  43.4871853
  68.9270003   7.9469083  43.6619543  70.1823933   7.1454813  43.9332153
  59.8461503   9.6138453  37.0475813  60.6124773   9.5019813  37.6101243
  59.9236193   8.9176423  36.3952583  58.5408263   7.0463523  37.7308703
  58.6211853   6.0991033  37.8426103  59.4328013   7.3770403  37.8369363
  59.3422973  17.1958913  44.8343243  60.0785453  16.6474373  45.1051813
  59.7263893  18.0614923  44.6949233  56.2268453  13.2632483  40.7084753
  55.3008233  13.5053623  40.6990163  56.6924883  14.0906743  40.5869503
  58.3481253  16.3804983  54.0228823  59.1493983  16.7017033  54.4364223
  57.8333073  16.0200563  54.7448733  62.4525283  16.3689223  36.6568813
  63.2453893  16.6578053  36.2050603  61.9329633  15.9381393  35.9781293
  67.1845883  12.4884853  53.9704233  66.5784043  12.5116453  53.2299983
  66.8799993  11.7567893  54.5071483  68.6146253  16.2165143  52.5813643
  69.5668003  16.1323163  52.5313883  68.4674473  16.8806853  53.2547433
  56.0679063   8.8678443  52.9664873  56.5718083   8.2885723  53.5381103
  55.3286483   9.1518673  53.5041243  62.9702683  11.5892633  36.5211163
  62.8653323  10.9744983  37.2472543  62.8026903  11.0658523  35.7374173
  63.1217003  10.2749433  52.5000393  62.3562673  10.8434433  52.4155063
  63.3032963   9.9825643  51.6068623  66.2105413  10.6512663  37.1253153
  65.6615513  11.0981963  37.7695893  66.8324673  10.1461913  37.6490823
  70.2640353  12.0054763  53.0575413  71.0049823  12.3430523  52.5542873
  69.5013033  12.1746823  52.5045183  58.1002143   7.0108033  53.8614943
  58.1407483   6.7121903  54.7700173  58.9547643   7.4115643  53.7022463
  61.8780533   9.6103583  39.0218453  62.2996953   9.4443453  39.8649843
  62.0031373   8.8003813  38.5273593  60.0407953   5.5900133  51.8289433
  59.5104413   5.0991083  51.2012773  60.7096023   6.0184333  51.2947363
  64.3908173   8.6341193  36.2695553  64.9113833   7.9190213  35.9036703
  65.0376573   9.2727063  36.5696063  68.9386013  10.0569593  51.5930623
  69.3527033  10.2114673  52.4421043  68.0037013  10.1824813  51.7556403
  69.4108183   7.3965753  53.5969773  69.9928953   6.6418073  53.5090253
  69.5869953   7.9273193  52.8201253  60.5280253   2.5562503  51.9086723
  60.4337123   1.9383253  51.1837593  59.9477643   3.2828793  51.6816633
  63.7001243  10.0090073  49.5626553  64.1189353  10.8522803  49.3902793
  62.7809873  10.1462113  49.3333333  66.0365143   7.7406253  50.9464393
  66.1561353   7.1447393  51.6859233  66.8959143   7.7775943  50.5265693
  68.3753043   8.2943443  49.5226903  67.8488263   8.8186063  48.9192043
  68.7184383   8.9270833  50.1536633  60.7739433   5.6836813  35.9676613
  60.5728493   4.8204173  36.3289953  60.6031483   5.5970173  35.0298213
  61.5508663  16.3143083  50.6784283  61.0129753  17.0389143  50.3592983
  61.8042623  15.8373423  49.8881623  62.8033913   4.2827603  52.2040213
  63.3933603   3.9743453  52.8918033  61.9854153   3.8107353  52.3600113
  67.6227343   3.8993413  52.4373233  66.9342863   3.2374953  52.3723223
  68.3433363   3.4531683  52.8821693  59.5722233   2.7837433  35.9554493
  59.8748133   2.7904863  35.0473643  60.3116823   2.4335293  36.4522153
  64.4070873  17.5494293  50.9370933  64.3329573  18.4529433  51.2443303
  63.5049713  17.2306193  50.9093003  64.9556203  16.7152803  38.5597293
  65.8506993  17.0537773  38.5816053  64.9873833  15.9932213  37.9321573
  58.5952363  12.0879853  36.7884293  59.0327233  12.6309523  37.4441873
  59.0800093  11.2626803  36.7980633  55.8098163  14.8768883  44.2404553
  56.1401173  14.0089943  44.0083193  56.2389163  15.0827403  45.0709513
  60.4060083  13.2077893  41.9006523  60.1055623  13.0842863  42.8010433
  60.2997573  12.3486483  41.4922253  56.2988373  15.7439473  46.9786183
  55.8619363  15.9240273  47.8110333  56.8666053  16.5014093  46.8367903
  56.1312803   8.2559703  43.3375063  55.4761643   7.9871343  42.6934763
  56.9690753   8.1464183  42.8877043  70.6202193  11.9708453  49.3639653
  69.8062033  12.4005613  49.6265443  71.0276393  12.5826863  48.7508703
  69.0803243   3.0500993  37.5593553  69.4988123   2.8631973  36.7190213
  68.7739303   2.1980043  37.8696483  57.1688733   8.6412273  47.8778403
  57.5361773   8.5539673  48.7574423  56.5999553   7.8778823  47.7785263
  56.7204733   5.5521363  51.7836823  55.8260783   5.5188123  52.1230533
  57.2602283   5.7508153  52.5488073  55.3450883   5.4658633  39.2800393
  54.4414963   5.7288833  39.1052053  55.8291503   5.7369803  38.5000353
  57.8878093   4.5224173  37.1894773  58.5969793   4.1007393  36.7042053
  57.1718033   4.5899403  36.5578123  58.5840813  13.1544963  53.0398553
  58.5410443  12.7837873  53.9213013  58.7151823  14.0922533  53.1800373
  62.2846843  14.7104553  48.6408273  62.0438203  14.9779113  47.7538793
  63.2249483  14.8810283  48.6959133  58.4228843  16.1007213  50.1596333
  57.8289163  15.9691913  50.8986373  58.4152683  15.2645353  49.6938433
  58.0541073  13.4665593  49.1104373  57.3275133  12.8470883  49.0430323
  58.1150223  13.8606203  48.2402453  61.6586173  15.6810593  45.8953783
  62.1751193  15.0697953  45.3702043  62.3083553  16.1839373  46.3864793
  64.3981673  16.5719083  46.7222763  64.6859483  16.3173383  45.8455773
  64.9104893  16.0196443  47.3128333  56.3371073  16.7839983  42.3201133
  56.1693113  16.1510663  43.0183023  55.4705583  16.9899383  41.9695323
  63.5012903   2.7296033  42.8135303  62.6887413   2.3552923  42.4731183
  64.0054543   1.9741113  43.1156493  57.9433773  15.4773213  39.7651273
  57.4181393  15.8581243  39.0613233  57.8678353  16.1023983  40.4860983
  64.4654033  17.4935183  54.0890963  65.3921343  17.2579453  54.1326923
  64.4504463  18.3207183  53.6076993  60.5426743  17.4255593  38.6400523
  61.2745563  17.1414873  38.0924413  60.8020413  17.1868873  39.5299903
  59.7041533  13.5420323  38.6446853  59.0750413  14.0105423  39.1932683
  59.8189363  12.6969543  39.0793043  67.1591253   7.5925983  24.7948053
  67.0785303   6.6780593  24.5239763  66.7455673   8.0893053  24.0887763
  65.2909293   9.3705003  26.6757323  64.5151393   8.8905443  26.9655893
  65.9422223   8.6910653  26.5013483  59.3075123   9.6824813  27.5533083
  58.4760003   9.4273523  27.9529593  59.9156103   9.7535583  28.2891003
  69.3116723  13.7765193  25.4556453  68.8498253  13.0052433  25.7843623
  70.1242273  13.8031263  25.9608903  59.2876383  13.7164903  27.7491103
  59.5904423  12.8262643  27.5701323  60.0319973  14.2735123  27.5213353
  57.7167073   4.6426703  21.3375473  56.8283773   4.9842673  21.2355353
  58.0008263   4.4427023  20.4456303  55.6800083   7.2432353  27.2215173
  56.2516193   6.4754553  27.2218813  55.6801623   7.5421113  26.3121783
  65.5380033  16.0623203  25.0760443  64.9191473  16.5180703  24.5054883
  66.3931813  16.2174663  24.6750143  64.7318283  12.0462193  26.6827483
  64.6626563  11.1052133  26.5216613  65.4938143  12.1363603  27.2550053
  56.9224953   2.6516713  29.0084103  56.7427793   1.7542463  29.2886863
  56.5205033   3.1988583  29.6831053  65.7623453   4.8532573  26.9096413
  66.1388273   3.9804453  26.7970083  65.6642963   5.1891273  26.0186853
  59.8928463   3.2258203  22.3713853  59.9995213   4.1261933  22.6782613
  58.9820823   3.1776173  22.0808503  69.5447573   2.3483013  23.8424753
  70.3657193   1.8579583  23.8850233  69.5781653   2.9380673  24.5956593
  57.5411623   5.1477213  27.6166443  58.2221733   5.4115583  28.2353843
  57.2259673   4.3078083  27.9504453  61.7336193   6.1944573  26.7039033
  62.2414413   6.6925543  27.3444053  62.2649433   5.4179773  26.5278393
  66.4043383  10.9462443  22.4692353  65.7860653  11.4111893  21.9055073
  66.9166633  11.6389923  22.8861863  61.2675143  10.4738313  29.1475953
  60.9344523  11.1007233  29.7897023  61.4441823  11.0000193  28.3677623
  69.7809053   4.2883393  26.6152293  69.0764623   4.5768283  27.1955403
  70.1421213   5.0983503  26.2551853  59.6987623   2.5453093  28.9772903
  60.0404433   3.3895143  28.6826773  58.7603433   2.6936833  29.0938243
  60.4794243  12.4419113  30.9625133  61.0968243  13.1170193  30.6809583
  59.6187363  12.8507093  30.8712633  55.7726583  11.6318973  19.8431983
  55.3954563  12.1206073  19.1116883  56.0299653  12.3044253  20.4738513
  68.9330573  15.7502653  27.5924953  68.9457733  15.3464943  26.7247213
  68.3805793  16.5249943  27.4886383  70.2275993  12.4718873  22.6815123
  70.1172323  11.5293203  22.8064543  70.2244243  12.8334513  23.5677883
  68.3316013  10.6532493  28.9207563  68.7484803  10.4392603  28.0861023
  69.0555833  10.9105283  29.4916183  65.7696273   8.0984193  22.0377613
  64.8425553   8.0321573  22.2666083  65.9221093   9.0364323  21.9232853
  65.7565353   4.3701193  19.0344773  64.8169023   4.5315153  19.1197233
  66.0748613   5.0886873  18.4880763  69.7993563   9.6604493  22.5412863
  69.1805983   9.3224043  21.8939163  69.7818013   9.0164253  23.2492053
  69.2420123   5.8389033  29.9578673  68.8291303   6.6642743  30.2118663
  68.5096073   5.2534073  29.7655033  61.3752913   8.6248933  24.8197343
  60.9709913   7.9126183  24.3243243  61.4616033   8.2802173  25.7085383
  61.8434613  12.3116493  26.9836553  61.5462903  11.7061963  26.3044333
  62.7934433  12.3493803  26.8725913  60.0881533   5.3992143  28.5996383
  60.6396123   5.5087483  27.8249633  60.6025043   5.7729743  29.3151613
  69.9320223  15.8848363  30.6459653  69.4550783  16.6920553  30.4532263
  69.2482013  15.2326693  30.7985863  60.9353043  12.0498183  33.6344353
  60.0381573  12.2738153  33.8817753  60.9605913  12.1733123  32.6855753
  67.9758263   8.8991303  19.5485613  68.4151543   8.0613733  19.4023433
  68.6886683   9.5320703  19.6349753  59.7624263   8.9211503  32.2101723
  59.6232033   9.7934303  32.5789123  58.8805623   8.5784313  32.0649663
  66.0853643  13.8387373  23.5166853  66.5249553  14.5811703  23.1022243
  66.0240533  14.0813943  24.4405813  61.5604613  14.8633203  34.4186873
  61.5320043  15.2676153  33.5515303  61.3969583  13.9343563  34.2558473
  58.0757543   7.5193913  22.3203993  57.9555143   8.2456003  21.7085263
  57.7658433   6.7496823  21.8431903  55.7142913  10.6909053  28.1272633
  55.7923333  10.8257823  27.1828353  56.3284593   9.9824943  28.3200753
  56.9590543  12.3909243  24.5378813  56.5518623  12.5323833  23.6832413
  57.8503553  12.1069403  24.3350023  66.7769423  16.5401153  31.4445863
  67.2914093  16.4509163  32.2468293  65.9338503  16.8860853  31.7373773
  68.7523823  16.8256493  20.8729863  68.5924963  16.5359433  21.7711693
  68.5870533  16.0496623  20.3375093  61.2312203  16.6055023  22.6501483
  61.0554683  15.6890563  22.4369283  60.3767943  16.9642313  22.8899283
  68.4549953  14.3344053  19.4327863  67.7615113  14.3321343  18.7730143
  69.1972813  13.9103373  19.0022033  68.0199883  15.9606763  23.5076353
  68.4756833  15.1796143  23.8214973  68.3592403  16.6713583  24.0517533
  55.7702433  11.7323223  30.6667093  55.9333473  11.2628583  29.8486463
  56.2354883  11.2246783  31.3315933  64.8291013   3.7297503  31.3062983
  64.3670383   3.9380523  32.1182923  64.4269123   2.9156853  31.0033653
  69.8295523   4.9506453  32.4359643  68.9789113   4.6512203  32.7568713
  69.6697313   5.1948463  31.5243463  66.9245233   6.4508203  34.5358433
  67.2498643   5.6171953  34.1960663  67.7125563   6.9736723  34.6836763
  60.3335423   5.9862553  23.4308913  60.1076343   5.7699723  24.3355533
  59.5527953   6.4191013  23.0854883  67.5633183   5.9925923  22.0299563
  66.9642073   6.7161723  21.8463183  68.1112793   5.9302703  21.2476013
  62.7734633   6.8848133  34.0969183  62.6778233   5.9442863  33.9469583
  63.6166613   7.1063203  33.7017253  66.1698053   4.6289463  24.0602843
  66.5627623   4.9461663  23.2471533  66.5314903   3.7501343  24.1747363
  57.9045173   3.2961803  32.2502963  57.5108563   4.1437013  32.4575743
  57.2163573   2.6588173  32.4411603  64.4790223   3.3796773  35.3199703
  63.7888543   3.1868973  35.9545793  65.2222523   3.6631413  35.8524003
  55.3932453   5.1610383  17.4935763  55.3107123   6.1041143  17.6350753
  55.0415513   5.0185293  16.6148113  66.7553193   7.2195213  28.1553623
  66.0234313   7.7282023  28.5043723  66.3577533   6.4025193  27.8542403
  63.1930583   3.8949413  26.5606113  63.1966643   3.4539363  25.7110653
  64.0881703   4.2166743  26.6677933  59.0432963   3.7775903  25.5200323
  58.7033013   4.2551133  26.2767373  58.2810283   3.3241023  25.1601423
  63.2550733   4.8961493  19.5512873  63.3763553   4.8547973  20.4998693
  62.8699243   5.7585643  19.3959603  67.2179103   2.6728893  27.5676563
  67.2351843   3.1237543  28.4118413  66.9694683   1.7734533  27.7810003
  62.2672233   7.2062633  18.9496173  61.6989133   6.7580883  18.3232083
  62.9761233   7.5655413  18.4161323  57.3441413  11.1074653  32.8262903
  56.9596203  10.4668323  33.4245863  57.6553603  11.8110773  33.3957633
  63.4938553   7.9551193  28.3071523  63.8608683   7.4809763  29.0532863
  63.3043613   8.8292763  28.6479863  56.3579043   2.6994883  24.4364993
  56.0725963   2.3350553  25.2743613  56.2957903   1.9675343  23.8228133
  61.2837923   6.9959833  30.6255733  60.9794993   7.8751813  30.8506093
  62.2384383   7.0559623  30.6613173  59.8119713  11.2020823  21.2222583
  59.0381973  10.6618443  21.0621303  60.5414343  10.6827433  20.8840343
  65.9526493  10.2695243  32.9017973  65.8863803   9.3490913  32.6475563
  65.3231633  10.3670683  33.6162613  68.7466023   5.9643793  19.4540523
  69.6345643   6.2761023  19.2791863  68.7171113   5.0916043  19.0621103
  59.8557113  10.8701203  24.8601393  60.3735783  10.0669463  24.8058283
  59.4041133  10.8080343  25.7018223  64.7426613  12.1367483  20.1328693
  65.0842313  12.8809713  19.6372013  63.9139323  12.4498603  20.4953523
  57.3401653   7.8362573  31.7727093  56.9816593   8.5016423  32.3600433
  57.0456213   7.0046123  32.1439713  60.5414773   8.2946813  34.6566643
  60.2414913   8.4403993  33.7594463  61.3126013   7.7352103  34.5640033
  65.8843223  13.0915813  32.6521773  65.8987763  12.1596773  32.4340683
  65.1768323  13.1775573  33.2911543  67.6254023  11.4583323  25.4974203
  67.9777843  10.8611453  24.8375573  66.7416353  11.1327553  25.6682453
  63.7117303  12.2181013  22.9044613  64.3988433  12.7650223  23.2852203
  62.9249723  12.7621743  22.9394223  55.8509703   7.8353833  18.3961693
  56.7204553   8.1178633  18.6797613  55.3600023   8.6489703  18.2810503
  63.0144513   9.2227043  22.5169973  63.4707293  10.0332293  22.7430163
  62.6632723   8.9050183  23.3488463  65.3177123  14.7333383  29.7462273
  65.9619343  14.9392763  30.4235693  65.6806563  13.9721783  29.2933123
  66.5909203  12.7365733  28.4639723  67.2331433  12.0358893  28.5771893
  67.1158553  13.5164173  28.2836613  70.4364923  13.0214353  18.1878863
  70.2102503  12.3044793  18.7803503  70.0461123  12.7726793  17.3500613
  68.3646823  13.5360633  31.6675783  68.7003063  14.1227323  32.3453703
  67.4447163  13.4053343  31.8973573  56.2180953  17.0481213  18.9623323
  56.5778593  17.6470553  18.3080593  56.0773293  17.5941103  19.7358353
  70.0181173  10.9386293  19.8493023  69.7302873  11.3998983  20.6370903
  70.8133343  10.4784063  20.1177243  56.2022813  15.3136073  33.4365723
  56.3113933  14.3730813  33.2961113  55.5503373  15.5790823  32.7879453
  64.1935403  13.5851963  34.8363843  63.8732273  12.8661203  35.3809533
  63.5193763  14.2607033  34.9099903  62.2349573  14.4312413  19.7796993
  62.2259673  15.1642103  19.1641503  61.3147933  14.1843993  19.8723953
  57.8356213   9.6527303  20.5243753  57.2284163  10.3926203  20.5339053
  58.3105563   9.7426663  19.6981953  67.4089003   3.8178123  30.2000643
  67.7769823   2.9973333  30.5280213  66.5487203   3.8780013  30.6156293
  70.7751033   2.7735063  21.0088203  70.1464193   2.8780733  20.2946433
  70.2802953   2.9931843  21.7982083  65.2209173  14.4940653  18.4422183
  65.3221153  14.2904643  17.5124163  64.3210913  14.2398933  18.6469963
  62.7435063   5.0521013  22.4246083  62.0351213   5.5207353  22.8659693
  63.0279543   4.3943023  23.0591273  64.3690993   6.4717713  30.4238613
  64.8676243   6.9463533  31.0890463  64.5113943   5.5481233  30.6308643
  66.7750493   1.7771673  23.8641873  66.6518273   1.7957803  22.9151383
  67.7235053   1.8250613  23.9840273  63.8627283  17.0126973  23.1369853
  64.1168783  16.9748363  22.2149223  62.9139763  16.8860303  23.1298103
  60.9470083   3.3606093  19.7996793  61.7960613   3.7976243  19.7336983
  60.5801353   3.6726353  20.6268853  69.8679863   7.9318853  24.7128363
  68.9270003   7.9469083  24.8876053  70.1823933   7.1454813  25.1588663
  59.8461503   9.6138453  18.2732323  60.6124773   9.5019813  18.8357753
  59.9236193   8.9176423  17.6209093  58.5408263   7.0463523  18.9565213
  58.6211853   6.0991033  19.0682613  59.4328013   7.3770403  19.0625873
  59.3422973  17.1958913  26.0599753  60.0785453  16.6474373  26.3308323
  59.7263893  18.0614923  25.9205743  56.2268453  13.2632483  21.9341263
  55.3008233  13.5053623  21.9246673  56.6924883  14.0906743  21.8126013
  58.3481253  16.3804983  35.2485333  59.1493983  16.7017033  35.6620733
  57.8333073  16.0200563  35.9705243  62.4525283  16.3689223  17.8825323
  63.2453893  16.6578053  17.4307113  61.9329633  15.9381393  17.2037803
  67.1845883  12.4884853  35.1960743  66.5784043  12.5116453  34.4556493
  66.8799993  11.7567893  35.7327993  68.6146253  16.2165143  33.8070153
  69.5668003  16.1323163  33.7570393  68.4674473  16.8806853  34.4803943
  56.0679063   8.8678443  34.1921383  56.5718083   8.2885723  34.7637613
  55.3286483   9.1518673  34.7297753  62.9702683  11.5892633  17.7467673
  62.8653323  10.9744983  18.4729053  62.8026903  11.0658523  16.9630683
  63.1217003  10.2749433  33.7256903  62.3562673  10.8434433  33.6411573
  63.3032963   9.9825643  32.8325133  66.2105413  10.6512663  18.3509663
  65.6615513  11.0981963  18.9952403  66.8324673  10.1461913  18.8747333
  70.2640353  12.0054763  34.2831923  71.0049823  12.3430523  33.7799383
  69.5013033  12.1746823  33.7301693  58.1002143   7.0108033  35.0871453
  58.1407483   6.7121903  35.9956683  58.9547643   7.4115643  34.9278973
  61.8780533   9.6103583  20.2474963  62.2996953   9.4443453  21.0906353
  62.0031373   8.8003813  19.7530103  60.0407953   5.5900133  33.0545943
  59.5104413   5.0991083  32.4269283  60.7096023   6.0184333  32.5203873
  64.3908173   8.6341193  17.4952063  64.9113833   7.9190213  17.1293213
  65.0376573   9.2727063  17.7952573  68.9386013  10.0569593  32.8187133
  69.3527033  10.2114673  33.6677553  68.0037013  10.1824813  32.9812913
  69.4108183   7.3965753  34.8226283  69.9928953   6.6418073  34.7346763
  69.5869953   7.9273193  34.0457763  60.5280253   2.5562503  33.1343233
  60.4337123   1.9383253  32.4094103  59.9477643   3.2828793  32.9073143
  63.7001243  10.0090073  30.7883063  64.1189353  10.8522803  30.6159303
  62.7809873  10.1462113  30.5589843  66.0365143   7.7406253  32.1720903
  66.1561353   7.1447393  32.9115743  66.8959143   7.7775943  31.7522203
  68.3753043   8.2943443  30.7483413  67.8488263   8.8186063  30.1448553
  68.7184383   8.9270833  31.3793143  60.7739433   5.6836813  17.1933123
  60.5728493   4.8204173  17.5546463  60.6031483   5.5970173  16.2554723
  61.5508663  16.3143083  31.9040793  61.0129753  17.0389143  31.5849493
  61.8042623  15.8373423  31.1138133  62.8033913   4.2827603  33.4296723
  63.3933603   3.9743453  34.1174543  61.9854153   3.8107353  33.5856623
  67.6227343   3.8993413  33.6629743  66.9342863   3.2374953  33.5979733
  68.3433363   3.4531683  34.1078203  59.5722233   2.7837433  17.1811003
  59.8748133   2.7904863  16.2730153  60.3116823   2.4335293  17.6778663
  64.4070873  17.5494293  32.1627443  64.3329573  18.4529433  32.4699813
  63.5049713  17.2306193  32.1349513  64.9556203  16.7152803  19.7853803
  65.8506993  17.0537773  19.8072563  64.9873833  15.9932213  19.1578083
  58.5952363  12.0879853  18.0140803  59.0327233  12.6309523  18.6698383
  59.0800093  11.2626803  18.0237143  55.8098163  14.8768883  25.4661063
  56.1401173  14.0089943  25.2339703  56.2389163  15.0827403  26.2966023
  60.4060083  13.2077893  23.1263033  60.1055623  13.0842863  24.0266943
  60.2997573  12.3486483  22.7178763  56.2988373  15.7439473  28.2042693
  55.8619363  15.9240273  29.0366843  56.8666053  16.5014093  28.0624413
  56.1312803   8.2559703  24.5631573  55.4761643   7.9871343  23.9191273
  56.9690753   8.1464183  24.1133553  70.6202193  11.9708453  30.5896163
  69.8062033  12.4005613  30.8521953  71.0276393  12.5826863  29.9765213
  69.0803243   3.0500993  18.7850063  69.4988123   2.8631973  17.9446723
  68.7739303   2.1980043  19.0952993  57.1688733   8.6412273  29.1034913
  57.5361773   8.5539673  29.9830933  56.5999553   7.8778823  29.0041773
  56.7204733   5.5521363  33.0093333  55.8260783   5.5188123  33.3487043
  57.2602283   5.7508153  33.7744583  55.3450883   5.4658633  20.5056903
  54.4414963   5.7288833  20.3308563  55.8291503   5.7369803  19.7256863
  57.8878093   4.5224173  18.4151283  58.5969793   4.1007393  17.9298563
  57.1718033   4.5899403  17.7834633  58.5840813  13.1544963  34.2655063
  58.5410443  12.7837873  35.1469523  58.7151823  14.0922533  34.4056883
  62.2846843  14.7104553  29.8664783  62.0438203  14.9779113  28.9795303
  63.2249483  14.8810283  29.9215643  58.4228843  16.1007213  31.3852843
  57.8289163  15.9691913  32.1242883  58.4152683  15.2645353  30.9194943
  58.0541073  13.4665593  30.3360883  57.3275133  12.8470883  30.2686833
  58.1150223  13.8606203  29.4658963  61.6586173  15.6810593  27.1210293
  62.1751193  15.0697953  26.5958553  62.3083553  16.1839373  27.6121303
  64.3981673  16.5719083  27.9479273  64.6859483  16.3173383  27.0712283
  64.9104893  16.0196443  28.5384843  56.3371073  16.7839983  23.5457643
  56.1693113  16.1510663  24.2439533  55.4705583  16.9899383  23.1951833
  63.5012903   2.7296033  24.0391813  62.6887413   2.3552923  23.6987693
  64.0054543   1.9741113  24.3413003  57.9433773  15.4773213  20.9907783
  57.4181393  15.8581243  20.2869743  57.8678353  16.1023983  21.7117493
  64.4654033  17.4935183  35.3147473  65.3921343  17.2579453  35.3583433
  64.4504463  18.3207183  34.8333503  60.5426743  17.4255593  19.8657033
  61.2745563  17.1414873  19.3180923  60.8020413  17.1868873  20.7556413
  59.7041533  13.5420323  19.8703363  59.0750413  14.0105423  20.4189193
  59.8189363  12.6969543  20.3049553  67.1591253   7.5925983   6.0204563
  67.0785303   6.6780593   5.7496273  66.7455673   8.0893053   5.3144273
  65.2909293   9.3705003   7.9013833  64.5151393   8.8905443   8.1912403
  65.9422223   8.6910653   7.7269993  59.3075123   9.6824813   8.7789593
  58.4760003   9.4273523   9.1786103  59.9156103   9.7535583   9.5147513
  69.3116723  13.7765193   6.6812963  68.8498253  13.0052433   7.0100133
  70.1242273  13.8031263   7.1865413  59.2876383  13.7164903   8.9747613
  59.5904423  12.8262643   8.7957833  60.0319973  14.2735123   8.7469863
  55.6800083   7.2432353   8.4471683  56.2516193   6.4754553   8.4475323
  55.6801623   7.5421113   7.5378293  65.5380033  16.0623203   6.3016953
  64.9191473  16.5180703   5.7311393  66.3931813  16.2174663   5.9006653
  64.7318283  12.0462193   7.9083993  64.6626563  11.1052133   7.7473123
  65.4938143  12.1363603   8.4806563  56.9224953   2.6516713  10.2340613
  56.7427793   1.7542463  10.5143373  56.5205033   3.1988583  10.9087563
  65.7623453   4.8532573   8.1352923  66.1388273   3.9804453   8.0226593
  65.6642963   5.1891273   7.2443363  59.8928463   3.2258203   3.5970363
  59.9995213   4.1261933   3.9039123  58.9820823   3.1776173   3.3065013
  69.5447573   2.3483013   5.0681263  70.3657193   1.8579583   5.1106743
  69.5781653   2.9380673   5.8213103  57.5411623   5.1477213   8.8422953
  58.2221733   5.4115583   9.4610353  57.2259673   4.3078083   9.1760963
  61.7336193   6.1944573   7.9295543  62.2414413   6.6925543   8.5700563
  62.2649433   5.4179773   7.7534903  66.4043383  10.9462443   3.6948863
  65.7860653  11.4111893   3.1311583  66.9166633  11.6389923   4.1118373
  61.2675143  10.4738313  10.3732463  60.9344523  11.1007233  11.0153533
  61.4441823  11.0000193   9.5934133  69.7809053   4.2883393   7.8408803
  69.0764623   4.5768283   8.4211913  70.1421213   5.0983503   7.4808363
  59.6987623   2.5453093  10.2029413  60.0404433   3.3895143   9.9083283
  58.7603433   2.6936833  10.3194753  60.4794243  12.4419113  12.1881643
  61.0968243  13.1170193  11.9066093  59.6187363  12.8507093  12.0969143
  68.9330573  15.7502653   8.8181463  68.9457733  15.3464943   7.9503723
  68.3805793  16.5249943   8.7142893  70.2275993  12.4718873   3.9071633
  70.1172323  11.5293203   4.0321053  70.2244243  12.8334513   4.7934393
  68.3316013  10.6532493  10.1464073  68.7484803  10.4392603   9.3117533
  69.0555833  10.9105283  10.7172693  65.7696273   8.0984193   3.2634123
  64.8425553   8.0321573   3.4922593  65.9221093   9.0364323   3.1489363
  69.7993563   9.6604493   3.7669373  69.1805983   9.3224043   3.1195673
  69.7818013   9.0164253   4.4748563  69.2420123   5.8389033  11.1835183
  68.8291303   6.6642743  11.4375173  68.5096073   5.2534073  10.9911543
  61.3752913   8.6248933   6.0453853  60.9709913   7.9126183   5.5499753
  61.4616033   8.2802173   6.9341893  61.8434613  12.3116493   8.2093063
  61.5462903  11.7061963   7.5300843  62.7934433  12.3493803   8.0982423
  60.0881533   5.3992143   9.8252893  60.6396123   5.5087483   9.0506143
  60.6025043   5.7729743  10.5408123  69.9320223  15.8848363  11.8716163
  69.4550783  16.6920553  11.6788773  69.2482013  15.2326693  12.0242373
  60.9353043  12.0498183  14.8600863  60.0381573  12.2738153  15.1074263
  60.9605913  12.1733123  13.9112263  59.7624263   8.9211503  13.4358233
  59.6232033   9.7934303  13.8045633  58.8805623   8.5784313  13.2906173
  66.0853643  13.8387373   4.7423363  66.5249553  14.5811703   4.3278753
  66.0240533  14.0813943   5.6662323  61.5604613  14.8633203  15.6443383
  61.5320043  15.2676153  14.7771813  61.3969583  13.9343563  15.4814983
  58.0757543   7.5193913   3.5460503  57.9555143   8.2456003   2.9341773
  57.7658433   6.7496823   3.0688413  55.7142913  10.6909053   9.3529143
  55.7923333  10.8257823   8.4084863  56.3284593   9.9824943   9.5457263
  56.9590543  12.3909243   5.7635323  56.5518623  12.5323833   4.9088923
  57.8503553  12.1069403   5.5606533  66.7769423  16.5401153  12.6702373
  67.2914093  16.4509163  13.4724803  65.9338503  16.8860853  12.9630283
  61.2312203  16.6055023   3.8757993  61.0554683  15.6890563   3.6625793
  60.3767943  16.9642313   4.1155793  68.0199883  15.9606763   4.7332863
  68.4756833  15.1796143   5.0471483  68.3592403  16.6713583   5.2774043
  55.7702433  11.7323223  11.8923603  55.9333473  11.2628583  11.0742973
  56.2354883  11.2246783  12.5572443  64.8291013   3.7297503  12.5319493
  64.3670383   3.9380523  13.3439433  64.4269123   2.9156853  12.2290163
  69.8295523   4.9506453  13.6616153  68.9789113   4.6512203  13.9825223
  69.6697313   5.1948463  12.7499973  66.9245233   6.4508203  15.7614943
  67.2498643   5.6171953  15.4217173  67.7125563   6.9736723  15.9093273
  60.3335423   5.9862553   4.6565423  60.1076343   5.7699723   5.5612043
  59.5527953   6.4191013   4.3111393  67.5633183   5.9925923   3.2556073
  66.9642073   6.7161723   3.0719693  68.1112793   5.9302703   2.4732523
  62.7734633   6.8848133  15.3225693  62.6778233   5.9442863  15.1726093
  63.6166613   7.1063203  14.9273763  66.1698053   4.6289463   5.2859353
  66.5627623   4.9461663   4.4728043  66.5314903   3.7501343   5.4003873
  57.9045173   3.2961803  13.4759473  57.5108563   4.1437013  13.6832253
  57.2163573   2.6588173  13.6668113  64.4790223   3.3796773  16.5456213
  63.7888543   3.1868973  17.1802303  65.2222523   3.6631413  17.0780513
  66.7553193   7.2195213   9.3810133  66.0234313   7.7282023   9.7300233
  66.3577533   6.4025193   9.0798913  63.1930583   3.8949413   7.7862623
  63.1966643   3.4539363   6.9367163  64.0881703   4.2166743   7.8934443
  59.0432963   3.7775903   6.7456833  58.7033013   4.2551133   7.5023883
  58.2810283   3.3241023   6.3857933  67.2179103   2.6728893   8.7933073
  67.2351843   3.1237543   9.6374923  66.9694683   1.7734533   9.0066513
  57.3441413  11.1074653  14.0519413  56.9596203  10.4668323  14.6502373
  57.6553603  11.8110773  14.6214143  63.4938553   7.9551193   9.5328033
  63.8608683   7.4809763  10.2789373  63.3043613   8.8292763   9.8736373
  56.3579043   2.6994883   5.6621503  56.0725963   2.3350553   6.5000123
  56.2957903   1.9675343   5.0484643  61.2837923   6.9959833  11.8512243
  60.9794993   7.8751813  12.0762603  62.2384383   7.0559623  11.8869683
  59.8119713  11.2020823   2.4479093  59.0381973  10.6618443   2.2877813
  60.5414343  10.6827433   2.1096853  65.9526493  10.2695243  14.1274483
  65.8863803   9.3490913  13.8732073  65.3231633  10.3670683  14.8419123
  59.8557113  10.8701203   6.0857903  60.3735783  10.0669463   6.0314793
  59.4041133  10.8080343   6.9274733  57.3401653   7.8362573  12.9983603
  56.9816593   8.5016423  13.5856943  57.0456213   7.0046123  13.3696223
  60.5414773   8.2946813  15.8823153  60.2414913   8.4403993  14.9850973
  61.3126013   7.7352103  15.7896543  65.8843223  13.0915813  13.8778283
  65.8987763  12.1596773  13.6597193  65.1768323  13.1775573  14.5168053
  67.6254023  11.4583323   6.7230713  67.9777843  10.8611453   6.0632083
  66.7416353  11.1327553   6.8938963  63.7117303  12.2181013   4.1301123
  64.3988433  12.7650223   4.5108713  62.9249723  12.7621743   4.1650733
  63.0144513   9.2227043   3.7426483  63.4707293  10.0332293   3.9686673
  62.6632723   8.9050183   4.5744973  65.3177123  14.7333383  10.9718783
  65.9619343  14.9392763  11.6492203  65.6806563  13.9721783  10.5189633
  66.5909203  12.7365733   9.6896233  67.2331433  12.0358893   9.8028403
  67.1158553  13.5164173   9.5093123  68.3646823  13.5360633  12.8932293
  68.7003063  14.1227323  13.5710213  67.4447163  13.4053343  13.1230083
  56.2022813  15.3136073  14.6622233  56.3113933  14.3730813  14.5217623
  55.5503373  15.5790823  14.0135963  64.1935403  13.5851963  16.0620353
  63.8732273  12.8661203  16.6066043  63.5193763  14.2607033  16.1356413
  67.4089003   3.8178123  11.4257153  67.7769823   2.9973333  11.7536723
  66.5487203   3.8780013  11.8412803  62.7435063   5.0521013   3.6502593
  62.0351213   5.5207353   4.0916203  63.0279543   4.3943023   4.2847783
  64.3690993   6.4717713  11.6495123  64.8676243   6.9463533  12.3146973
  64.5113943   5.5481233  11.8565153  66.7750493   1.7771673   5.0898383
  66.6518273   1.7957803   4.1407893  67.7235053   1.8250613   5.2096783
  63.8627283  17.0126973   4.3626363  64.1168783  16.9748363   3.4405733
  62.9139763  16.8860303   4.3554613  69.8679863   7.9318853   5.9384873
  68.9270003   7.9469083   6.1132563  70.1823933   7.1454813   6.3845173
  59.3422973  17.1958913   7.2856263  60.0785453  16.6474373   7.5564833
  59.7263893  18.0614923   7.1462253  56.2268453  13.2632483   3.1597773
  55.3008233  13.5053623   3.1503183  56.6924883  14.0906743   3.0382523
  58.3481253  16.3804983  16.4741843  59.1493983  16.7017033  16.8877243
  57.8333073  16.0200563  17.1961753  67.1845883  12.4884853  16.4217253
  66.5784043  12.5116453  15.6813003  66.8799993  11.7567893  16.9584503
  68.6146253  16.2165143  15.0326663  69.5668003  16.1323163  14.9826903
  68.4674473  16.8806853  15.7060453  56.0679063   8.8678443  15.4177893
  56.5718083   8.2885723  15.9894123  55.3286483   9.1518673  15.9554263
  63.1217003  10.2749433  14.9513413  62.3562673  10.8434433  14.8668083
  63.3032963   9.9825643  14.0581643  70.2640353  12.0054763  15.5088433
  71.0049823  12.3430523  15.0055893  69.5013033  12.1746823  14.9558203
  58.1002143   7.0108033  16.3127963  58.1407483   6.7121903  17.2213193
  58.9547643   7.4115643  16.1535483  60.0407953   5.5900133  14.2802453
  59.5104413   5.0991083  13.6525793  60.7096023   6.0184333  13.7460383
  68.9386013  10.0569593  14.0443643  69.3527033  10.2114673  14.8934063
  68.0037013  10.1824813  14.2069423  69.4108183   7.3965753  16.0482793
  69.9928953   6.6418073  15.9603273  69.5869953   7.9273193  15.2714273
  60.5280253   2.5562503  14.3599743  60.4337123   1.9383253  13.6350613
  59.9477643   3.2828793  14.1329653  63.7001243  10.0090073  12.0139573
  64.1189353  10.8522803  11.8415813  62.7809873  10.1462113  11.7846353
  66.0365143   7.7406253  13.3977413  66.1561353   7.1447393  14.1372253
  66.8959143   7.7775943  12.9778713  68.3753043   8.2943443  11.9739923
  67.8488263   8.8186063  11.3705063  68.7184383   8.9270833  12.6049653
  61.5508663  16.3143083  13.1297303  61.0129753  17.0389143  12.8106003
  61.8042623  15.8373423  12.3394643  62.8033913   4.2827603  14.6553233
  63.3933603   3.9743453  15.3431053  61.9854153   3.8107353  14.8113133
  67.6227343   3.8993413  14.8886253  66.9342863   3.2374953  14.8236243
  68.3433363   3.4531683  15.3334713  64.4070873  17.5494293  13.3883953
  64.3329573  18.4529433  13.6956323  63.5049713  17.2306193  13.3606023
  55.8098163  14.8768883   6.6917573  56.1401173  14.0089943   6.4596213
  56.2389163  15.0827403   7.5222533  60.4060083  13.2077893   4.3519543
  60.1055623  13.0842863   5.2523453  60.2997573  12.3486483   3.9435273
  56.2988373  15.7439473   9.4299203  55.8619363  15.9240273  10.2623353
  56.8666053  16.5014093   9.2880923  56.1312803   8.2559703   5.7888083
  55.4761643   7.9871343   5.1447783  56.9690753   8.1464183   5.3390063
  70.6202193  11.9708453  11.8152673  69.8062033  12.4005613  12.0778463
  71.0276393  12.5826863  11.2021723  57.1688733   8.6412273  10.3291423
  57.5361773   8.5539673  11.2087443  56.5999553   7.8778823  10.2298283
  56.7204733   5.5521363  14.2349843  55.8260783   5.5188123  14.5743553
  57.2602283   5.7508153  15.0001093  58.5840813  13.1544963  15.4911573
  58.5410443  12.7837873  16.3726033  58.7151823  14.0922533  15.6313393
  62.2846843  14.7104553  11.0921293  62.0438203  14.9779113  10.2051813
  63.2249483  14.8810283  11.1472153  58.4228843  16.1007213  12.6109353
  57.8289163  15.9691913  13.3499393  58.4152683  15.2645353  12.1451453
  58.0541073  13.4665593  11.5617393  57.3275133  12.8470883  11.4943343
  58.1150223  13.8606203  10.6915473  61.6586173  15.6810593   8.3466803
  62.1751193  15.0697953   7.8215063  62.3083553  16.1839373   8.8377813
  64.3981673  16.5719083   9.1735783  64.6859483  16.3173383   8.2968793
  64.9104893  16.0196443   9.7641353  56.3371073  16.7839983   4.7714153
  56.1693113  16.1510663   5.4696043  55.4705583  16.9899383   4.4208343
  63.5012903   2.7296033   5.2648323  62.6887413   2.3552923   4.9244203
  64.0054543   1.9741113   5.5669513  64.4654033  17.4935183  16.5403983
  65.3921343  17.2579453  16.5839943  64.4504463  18.3207183  16.0590013
  48.3847763  63.9156453  62.3435033  48.3041813  63.0011063  62.0726743
  47.9712183  64.4123523  61.6374743  46.5165803  65.6935473  64.2244303
  45.7407903  65.2135913  64.5142873  47.1678733  65.0141123  64.0500463
  40.5331633  66.0055283  65.1020063  39.7016513  65.7503993  65.5016573
  41.1412613  66.0766053  65.8377983  50.5373233  70.0995663  63.0043433
  50.0754763  69.3282903  63.3330603  51.3498783  70.1261733  63.5095883
  40.5132893  70.0395373  65.2978083  40.8160933  69.1493113  65.1188303
  41.2576483  70.5965593  65.0700333  38.9423583  60.9657173  58.8862453
  38.0540283  61.3073143  58.7842333  39.2264773  60.7657493  57.9943283
  36.9056593  63.5662823  64.7702153  37.4772703  62.7985023  64.7705793
  36.9058133  63.8651583  63.8608763  45.9574793  68.3692663  64.2314463
  45.8883073  67.4282603  64.0703593  46.7194653  68.4594073  64.8037033
  38.1481463  58.9747183  66.5571083  37.9684303  58.0772933  66.8373843
  37.7461543  59.5219053  67.2318033  46.9879963  61.1763043  64.4583393
  47.3644783  60.3034923  64.3457063  46.8899473  61.5121743  63.5673833
  41.1184973  59.5488673  59.9200833  41.2251723  60.4492403  60.2269593
  40.2077333  59.5006643  59.6295483  50.7704083  58.6713483  61.3911733
  51.5913703  58.1810053  61.4337213  50.8038163  59.2611143  62.1443573
  38.7668133  61.4707683  65.1653423  39.4478243  61.7346053  65.7840823
  38.4516183  60.6308553  65.4991433  42.9592703  62.5175043  64.2526013
  43.4670923  63.0156013  64.8931033  43.4905943  61.7410243  64.0765373
  55.0603633  60.6880233  67.9555363  54.3555803  61.0761943  67.4370473
  55.3261553  61.3830523  68.5576293  41.2428803  57.1573603  68.5189433
  41.2447243  57.6745993  67.7135333  40.4133113  56.6803783  68.4959363
  47.6299893  67.2692913  60.0179333  47.0117163  67.7342363  59.4542053
  48.1423143  67.9620393  60.4348843  42.4931653  66.7968783  66.6962933
  42.1601033  67.4237703  67.3384003  42.6698333  67.3230663  65.9164603
  51.0065563  60.6113863  64.1639273  50.3021133  60.8998753  64.7442383
  51.3677723  61.4213973  63.8038833  40.9244133  58.8683563  66.5259883
  41.2660943  59.7125613  66.2313753  39.9859943  59.0167303  66.6425223
  41.7050753  68.7649583  68.5112113  42.3224753  69.4400663  68.2296563
  40.8443873  69.1737563  68.4199613  36.9983093  67.9549443  57.3918963
  36.6211073  68.4436543  56.6603863  37.2556163  68.6274723  58.0225493
  52.6228343  70.2288993  66.4266753  51.9391863  70.8988103  66.4183423
  53.1622633  70.4269643  65.6611613  54.0752483  60.0568653  64.5548483
  53.1277393  60.0907633  64.6863913  54.4002473  60.8707603  64.9397843
  44.6072023  56.3565833  62.8504473  44.9147003  55.8012723  62.1339973
  43.6772723  56.4910293  62.6677463  51.4532503  68.7949343  60.2302103
  51.3428833  67.8523673  60.3551523  51.4500753  69.1564983  61.1164863
  49.5572523  66.9762963  66.4694543  49.9741313  66.7623073  65.6348003
  50.2812343  67.2335753  67.0403163  46.9952783  64.4214663  59.5864593
  46.0682063  64.3552043  59.8153063  47.1477603  65.3594793  59.4719833
  46.9821863  60.6931663  56.5831753  46.0425533  60.8545623  56.6684213
  47.3005123  61.4117343  56.0367743  53.5034623  65.3750183  66.5610783
  52.6753253  65.4443273  66.0860913  54.0985103  65.9604493  66.0926613
  51.0250073  65.9834963  60.0899843  50.4062493  65.6454513  59.4426143
  51.0074523  65.3394723  60.7979033  50.4676633  62.1619503  67.5065653
  50.0547813  62.9873213  67.7605643  49.7352583  61.5764543  67.3142013
  42.6009423  64.9479403  62.3684323  42.1966423  64.2356653  61.8730223
  42.6872543  64.6032643  63.2572363  43.0691123  68.6346963  64.5323533
  42.7719413  68.0292433  63.8531313  44.0190943  68.6724273  64.4212893
  41.3138043  61.7222613  66.1483363  41.8652633  61.8317953  65.3736613
  41.8281553  62.0960213  66.8638593  49.2014773  65.2221773  57.0972593
  49.6408053  64.3844203  56.9510413  49.9143193  65.8551173  57.1836733
  47.3110153  70.1617843  61.0653833  47.7506063  70.9042173  60.6509223
  47.2497043  70.4044413  61.9892793  52.7831913  56.4764583  55.4113633
  52.4704573  56.5691413  56.3112703  53.5444383  57.0545613  55.3611063
  39.3014053  63.8424383  59.8690973  39.1811653  64.5686473  59.2572243
  38.9914943  63.0727293  59.3918883  36.9399423  67.0139523  65.6759613
  37.0179843  67.1488293  64.7315333  37.5541103  66.3055413  65.8687733
  38.1847053  68.7139713  62.0865793  37.7775133  68.8554303  61.2319393
  39.0760063  68.4299873  61.8837003  49.6806463  70.6574523  56.9814843
  48.9871623  70.6551813  56.3217123  50.4229323  70.2333843  56.5509013
  36.9958943  68.0553693  68.2154073  37.1589983  67.5859053  67.3973443
  37.4611393  67.5477253  68.8802913  41.7677713  57.1859453  63.2514643
  41.3245863  57.9668993  62.9199163  42.3262703  57.5089343  63.9585583
  46.0547523  60.0527973  68.8549963  45.5926893  60.2610993  69.6669903
  45.6525633  59.2387323  68.5520633  44.8836533  56.8070153  58.1320473
  44.2590713  56.8030023  58.8573783  44.7966653  55.9401113  57.7356443
  43.8053613  57.7306783  65.1104243  44.1025943  58.6369613  65.0296263
  44.3539173  57.2425563  64.4963813  41.5591933  62.3093023  60.9795893
  41.3332853  62.0930193  61.8842513  40.7784463  62.7421483  60.6341863
  48.7889693  62.3156393  59.5786543  48.1898583  63.0392193  59.3950163
  49.3369303  62.2533173  58.7962993  47.3954563  60.9519933  61.6089823
  47.7884133  61.2692133  60.7958513  47.7571413  60.0731813  61.7234343
  36.4318733  57.5420733  63.8320023  36.1431783  58.1123593  64.5445003
  37.1764493  57.0625183  64.1951253  36.6188963  61.4840853  55.0422743
  36.5363633  62.4271613  55.1837733  36.2672023  61.3415763  54.1635093
  47.9809703  63.5425683  65.7040603  47.2490823  64.0512493  66.0530703
  47.5834043  62.7255663  65.4029383  44.4187093  60.2179883  64.1093093
  44.4223153  59.7769833  63.2597633  45.3138213  60.5397213  64.2164913
  40.2689473  60.1006373  63.0687303  39.9289523  60.5781603  63.8254353
  39.5066793  59.6471493  62.7088403  44.4807243  61.2191963  57.0999853
  44.6020063  61.1778443  58.0485673  44.0955753  62.0816113  56.9446583
  48.4435613  58.9959363  65.1163543  48.4608353  59.4468013  65.9605393
  48.1951193  58.0965003  65.3296983  43.4928743  63.5293103  56.4983153
  42.9245643  63.0811353  55.8719063  44.2017743  63.8885883  55.9648303
  44.7195063  64.2781663  65.8558503  45.0865193  63.8040233  66.6019843
  44.5300123  65.1523233  66.1966843  37.5835553  59.0225353  61.9851973
  37.2982473  58.6581023  62.8230593  37.5214413  58.2905813  61.3715113
  42.5094433  63.3190303  68.1742713  42.2051503  64.1982283  68.3993073
  43.4640893  63.3790093  68.2100153  41.0376223  67.5251293  58.7709563
  40.2638483  66.9848913  58.6108283  41.7670853  67.0057903  58.4327323
  51.7964203  66.5216653  64.5635953  52.5163323  67.0171943  64.1732063
  51.5946023  65.8434543  63.9189823  47.2574143  57.9154613  58.7065343
  46.4438753  57.4167783  58.6310653  47.0636093  58.7552863  58.2901693
  49.9722533  62.2874263  57.0027503  50.8602153  62.5991493  56.8278843
  49.9427623  61.4146513  56.6108083  41.0813623  67.1931673  62.4088373
  41.5992293  66.3899933  62.3545263  40.6297643  67.1310813  63.2505203
  45.9683123  68.4597953  57.6815673  46.3098823  69.2040183  57.1858993
  45.1395833  68.7729073  58.0440503  52.2436803  63.5986103  56.4707363
  52.1600523  64.0300323  55.6203803  52.9630993  64.0584453  56.9034183
  53.3210943  66.0553623  69.5477333  52.5959133  66.6482403  69.3506723
  53.8486403  66.0477163  68.7490703  53.2724053  70.4528363  59.1989493
  52.6300213  69.7983983  59.4733213  52.8854713  70.8583453  58.4230163
  48.8510533  67.7813793  63.0461183  49.2034353  67.1841923  62.3862553
  47.9672863  67.4558023  63.2169433  44.9373813  68.5411483  60.4531593
  45.6244943  69.0880693  60.8339183  44.1506233  69.0852213  60.4881203
  37.0766213  64.1584303  55.9448673  37.9461063  64.4409103  56.2284593
  36.5856533  64.9720173  55.8297483  44.2401023  65.5457513  60.0656953
  44.6963803  66.3562763  60.2917143  43.8889233  65.2280653  60.8975443
  46.5433633  71.0563853  67.2949253  47.1875853  71.2623233  67.9722673
  46.9063073  70.2952253  66.8420103  40.1412803  55.8895163  60.5379473
  40.0127433  55.8813063  61.4864393  39.3174823  56.2278253  60.1870483
  47.8165713  69.0596203  66.0126703  48.4587943  68.3589363  66.1258873
  48.3415063  69.8394643  65.8323593  51.6621433  69.3444823  55.7365843
  51.4359013  68.6275263  56.3290483  51.2717633  69.0957263  54.8987593
  51.2437683  67.2616763  57.3980003  50.9559383  67.7229453  58.1857883
  52.0389853  66.8014533  57.6664223  39.0612723  65.9757773  58.0730733
  38.4540673  66.7156673  58.0826033  39.5362073  66.0657133  57.2468933
  48.6345513  60.1408593  67.7487623  49.0026333  59.3203803  68.0767193
  47.7743713  60.2010483  68.1643273  52.0007543  59.0965533  58.5575183
  51.3720703  59.2011203  57.8433413  51.5059463  59.3162313  59.3469063
  46.4465683  70.8171123  55.9909163  46.5477663  70.6135113  55.0611143
  45.5467423  70.5629403  56.1956943  43.9691573  61.3751483  59.9733063
  43.2607723  61.8437823  60.4146673  44.2536053  60.7173493  60.6078253
  45.5947503  62.7948183  67.9725593  46.0932753  63.2694003  68.6377443
  45.7370453  61.8711703  68.1795623  48.0007003  58.1002143  61.4128853
  47.8774783  58.1188273  60.4638363  48.9491563  58.1481083  61.5327253
  42.1726593  59.6836563  57.3483773  43.0217123  60.1206713  57.2823963
  41.8057863  59.9956823  58.1755833  52.8014363  59.0116143  68.8153983
  52.2987963  59.7521543  69.1547793  53.6171023  59.4000143  68.4990773
  51.0936373  64.2549323  62.2615343  50.1526513  64.2699553  62.4363033
  51.4080443  63.4685283  62.7075643  41.0718013  65.9368923  55.8219303
  41.8381283  65.8250283  56.3844733  41.1492703  65.2406893  55.1696073
  39.7664773  63.3693993  56.5052193  39.8468363  62.4221503  56.6169593
  40.6584523  63.7000873  56.6112853  37.4524963  69.5862953  59.4828243
  36.5264743  69.8284093  59.4733653  37.9181393  70.4137213  59.3612993
  44.1959193  67.9123103  55.2954653  44.0909833  67.2975453  56.0216033
  44.0283413  67.3888993  54.5117663  47.4361923  66.9743133  55.8996643
  46.8872023  67.4212433  56.5439383  48.0581183  66.4692383  56.4234313
  43.1037043  65.9334053  57.7961943  43.5253463  65.7673923  58.6393333
  43.2287883  65.1234283  57.3017083  45.6164683  64.9571663  55.0439043
  46.1370343  64.2420683  54.6780193  46.2633083  65.5957533  55.3439553
  44.5198203  57.4366213  67.7157603  44.0715503  57.4590473  66.8703153
  43.8863403  57.0385233  68.3127903  44.9257753  66.3320543  68.3370043
  45.3445863  67.1753273  68.1646283  44.0066383  66.4692583  68.1076823
  49.6009553  64.6173913  68.2970393  49.0744773  65.1416533  67.6935533
  49.9440893  65.2501303  68.9280123  41.9995943  62.0067283  54.7420103
  41.7985003  61.1434643  55.1033443  41.8287993  61.9200643  53.8041703
  49.4784253  56.8175513  57.2706983  49.7586543  55.9743413  57.6266403
  48.7049983  57.0498623  57.7845733  40.7978743  59.1067903  54.7297983
  41.1004643  59.1135333  53.8217133  41.5373333  58.7565763  55.2265643
  44.0163673  58.0502523  55.7154183  43.6685673  57.3726513  55.1356633
  44.2176443  57.5892033  56.5297573  39.8208873  68.4110323  55.5627783
  40.2583743  68.9539993  56.2185363  40.3056603  67.5857273  55.5724123
  37.0354673  71.1999353  63.0148043  37.3657683  70.3320413  62.7826683
  37.4645673  71.4057873  63.8453003  41.6316593  69.5308363  60.6750013
  41.3312133  69.4073333  61.5753923  41.5254083  68.6716953  60.2665743
  54.4008513  69.3104763  55.3776693  53.5701473  69.3781413  55.8483923
  54.5780343  70.2008883  55.0743553  53.8564973  66.0552243  57.8810893
  54.6183883  66.6248893  57.9870583  53.8719343  65.4879443  58.6519203
  37.3569313  64.5790173  62.1118553  36.7018153  64.3101813  61.4678253
  38.1947263  64.4694653  61.6620533  54.8624943  66.9102343  62.7252823
  55.2333773  66.1269663  62.3188793  55.5026873  67.5991443  62.5470123
  51.8458703  68.2938923  68.1383143  51.0318543  68.7236083  68.4008933
  52.2532903  68.9057333  67.5252193  53.9084143  66.3486613  55.0383413
  54.1832983  67.2565493  54.9102633  53.7194883  66.2849143  55.9745403
  50.3059753  59.3731463  56.3337043  50.7244633  59.1862443  55.4933703
  49.9995813  58.5210513  56.6439973  53.8049483  64.2855603  60.0312843
  53.4293083  63.5183533  59.5994133  53.0752603  64.6678303  60.5187773
  38.3945243  64.9642743  66.6521893  38.7618283  64.8770143  67.5317913
  37.8256063  64.2009293  66.5528753  53.1949103  63.4327123  69.6652363
  52.9635193  63.2039873  68.7650313  53.4553653  64.3526673  69.6197253
  36.5707393  61.7889103  58.0543883  35.6671473  62.0519303  57.8795543
  37.0548013  62.0600273  57.2743843  53.0800443  62.5113093  63.3320083
  53.6037923  62.0175743  62.7010253  53.6659863  62.6463453  64.0767653
  53.2590163  62.5952963  66.8539633  52.3092873  62.5616503  66.9684623
  53.4403173  63.5053073  66.6189403  39.1134603  60.8454643  55.9638263
  39.8226303  60.4237863  55.4785543  38.3974543  60.9129873  55.3321613
  38.7608763  56.8993973  55.0040913  39.4836893  57.4402913  55.3222133
  39.0333283  56.6257393  54.1282453  52.5700413  61.7686443  59.2712493
  53.0659533  61.5357313  60.0561373  52.3716483  60.9298283  58.8550133
  38.4500953  56.1500163  64.9063533  39.0977143  55.5997543  64.4658693
  38.8702793  56.4043313  65.7279343  53.9987573  60.4047393  61.8050173
  53.8886853  60.2503433  62.7432443  54.7595163  59.8768333  61.5625583
  52.3453293  56.3441523  68.2633173  52.9825513  56.9575663  68.6292363
  52.4928183  56.3802183  67.3182403  54.8877843  58.2355313  55.0456313
  55.8127153  58.1036493  54.8374603  54.8653633  58.3148133  55.9992763
  54.9616333  59.0065973  57.6713023  54.1667833  58.9411093  58.2005933
  55.1659613  59.9416613  57.6598373  38.2032953  56.3055833  67.6488853
  37.8547773  56.7619653  68.4147033  37.8720653  55.4112963  67.7311283
  43.5103353  71.0335023  67.4151763  43.2694713  71.3009583  66.5282283
  44.4505993  71.2040753  67.4702623  49.0940373  55.7169913  67.1369853
  48.2200213  56.0505023  66.9342783  48.9851123  55.2443093  67.9621723
  50.0012353  57.9240783  68.5211573  49.6725713  57.1092543  68.1413303
  50.9494653  57.8810593  68.3977263  39.2797583  69.7896063  67.8847863
  38.5531643  69.1701353  67.8173813  39.3406733  70.1836673  67.0145943
  46.8415193  56.6339753  66.0762763  46.0586983  57.1085253  66.3559523
  46.5478123  55.7294583  65.9675943  51.3936263  57.3362853  64.1211853
  51.8344353  57.2807953  63.2733453  51.1243853  58.2520863  64.1922033
  53.2574833  56.9678093  62.1320673  53.1963233  56.0239313  61.9851693
  54.0366863  57.0758183  62.6774133  38.1855603  56.9387233  58.5976483
  38.9434963  57.0516113  58.0240513  37.7232773  57.7756433  58.5519913
  44.7269413  59.0526503  61.5878793  43.9143923  58.6783393  61.2474673
  45.2311053  58.2971583  61.8899983  49.2294393  55.7168953  62.8261863
  49.8323763  56.2889163  63.3010383  48.4887383  56.2808393  62.6035763
  52.3728993  56.1190513  58.1002143  52.5679623  57.0173963  58.3669573
  51.5858863  55.8877593  58.5935093  40.5580753  57.4651283  57.1378453
  41.0873513  56.6781083  57.0086403  41.1909073  58.1442473  57.3713983
  42.7518593  57.2026423  60.1923843  42.1221333  56.5013733  60.3593973
  42.2123733  57.9630553  59.9757003  40.9298043  69.8650793  57.4190343
  40.3006923  70.3335893  57.9676173  41.0445873  69.0200013  57.8536533
  48.3847763  63.9156453  43.5691543  48.3041813  63.0011063  43.2983253
  47.9712183  64.4123523  42.8631253  46.5165803  65.6935473  45.4500813
  45.7407903  65.2135913  45.7399383  47.1678733  65.0141123  45.2756973
  40.5331633  66.0055283  46.3276573  39.7016513  65.7503993  46.7273083
  41.1412613  66.0766053  47.0634493  50.5373233  70.0995663  44.2299943
  50.0754763  69.3282903  44.5587113  51.3498783  70.1261733  44.7352393
  40.5132893  70.0395373  46.5234593  40.8160933  69.1493113  46.3444813
  41.2576483  70.5965593  46.2956843  38.9423583  60.9657173  40.1118963
  38.0540283  61.3073143  40.0098843  39.2264773  60.7657493  39.2199793
  36.9056593  63.5662823  45.9958663  37.4772703  62.7985023  45.9962303
  36.9058133  63.8651583  45.0865273  45.9574793  68.3692663  45.4570973
  45.8883073  67.4282603  45.2960103  46.7194653  68.4594073  46.0293543
  38.1481463  58.9747183  47.7827593  37.9684303  58.0772933  48.0630353
  37.7461543  59.5219053  48.4574543  46.9879963  61.1763043  45.6839903
  47.3644783  60.3034923  45.5713573  46.8899473  61.5121743  44.7930343
  41.1184973  59.5488673  41.1457343  41.2251723  60.4492403  41.4526103
  40.2077333  59.5006643  40.8551993  50.7704083  58.6713483  42.6168243
  51.5913703  58.1810053  42.6593723  50.8038163  59.2611143  43.3700083
  38.7668133  61.4707683  46.3909933  39.4478243  61.7346053  47.0097333
  38.4516183  60.6308553  46.7247943  42.9592703  62.5175043  45.4782523
  43.4670923  63.0156013  46.1187543  43.4905943  61.7410243  45.3021883
  55.0603633  60.6880233  49.1811873  54.3555803  61.0761943  48.6626983
  55.3261553  61.3830523  49.7832803  41.2428803  57.1573603  49.7445943
  41.2447243  57.6745993  48.9391843  40.4133113  56.6803783  49.7215873
  47.6299893  67.2692913  41.2435843  47.0117163  67.7342363  40.6798563
  48.1423143  67.9620393  41.6605353  42.4931653  66.7968783  47.9219443
  42.1601033  67.4237703  48.5640513  42.6698333  67.3230663  47.1421113
  51.0065563  60.6113863  45.3895783  50.3021133  60.8998753  45.9698893
  51.3677723  61.4213973  45.0295343  40.9244133  58.8683563  47.7516393
  41.2660943  59.7125613  47.4570263  39.9859943  59.0167303  47.8681733
  41.7050753  68.7649583  49.7368623  42.3224753  69.4400663  49.4553073
  40.8443873  69.1737563  49.6456123  36.9983093  67.9549443  38.6175473
  36.6211073  68.4436543  37.8860373  37.2556163  68.6274723  39.2482003
  52.6228343  70.2288993  47.6523263  51.9391863  70.8988103  47.6439933
  53.1622633  70.4269643  46.8868123  54.0752483  60.0568653  45.7804993
  53.1277393  60.0907633  45.9120423  54.4002473  60.8707603  46.1654353
  44.6072023  56.3565833  44.0760983  44.9147003  55.8012723  43.3596483
  43.6772723  56.4910293  43.8933973  51.4532503  68.7949343  41.4558613
  51.3428833  67.8523673  41.5808033  51.4500753  69.1564983  42.3421373
  49.5572523  66.9762963  47.6951053  49.9741313  66.7623073  46.8604513
  50.2812343  67.2335753  48.2659673  46.9952783  64.4214663  40.8121103
  46.0682063  64.3552043  41.0409573  47.1477603  65.3594793  40.6976343
  46.9821863  60.6931663  37.8088263  46.0425533  60.8545623  37.8940723
  47.3005123  61.4117343  37.2624253  53.5034623  65.3750183  47.7867293
  52.6753253  65.4443273  47.3117423  54.0985103  65.9604493  47.3183123
  51.0250073  65.9834963  41.3156353  50.4062493  65.6454513  40.6682653
  51.0074523  65.3394723  42.0235543  50.4676633  62.1619503  48.7322163
  50.0547813  62.9873213  48.9862153  49.7352583  61.5764543  48.5398523
  42.6009423  64.9479403  43.5940833  42.1966423  64.2356653  43.0986733
  42.6872543  64.6032643  44.4828873  43.0691123  68.6346963  45.7580043
  42.7719413  68.0292433  45.0787823  44.0190943  68.6724273  45.6469403
  41.3138043  61.7222613  47.3739873  41.8652633  61.8317953  46.5993123
  41.8281553  62.0960213  48.0895103  42.1609553  68.3728653  52.4087843
  41.2638083  68.5968623  52.6561243  42.1862423  68.4963593  51.4599243
  49.2014773  65.2221773  38.3229103  49.6408053  64.3844203  38.1766923
  49.9143193  65.8551173  38.4093243  40.9880773  65.2441973  50.9845213
  40.8488543  66.1164773  51.3532613  40.1062133  64.9014783  50.8393153
  47.3110153  70.1617843  42.2910343  47.7506063  70.9042173  41.8765733
  47.2497043  70.4044413  43.2149303  52.7831913  56.4764583  36.6370143
  52.4704573  56.5691413  37.5369213  53.5444383  57.0545613  36.5867573
  39.3014053  63.8424383  41.0947483  39.1811653  64.5686473  40.4828753
  38.9914943  63.0727293  40.6175393  36.9399423  67.0139523  46.9016123
  37.0179843  67.1488293  45.9571843  37.5541103  66.3055413  47.0944243
  38.1847053  68.7139713  43.3122303  37.7775133  68.8554303  42.4575903
  39.0760063  68.4299873  43.1093513  54.1409193  69.1603623  51.6494543
  54.2672253  68.9215503  50.7311723  54.1830573  68.3288163  52.1216623
  49.6806463  70.6574523  38.2071353  48.9871623  70.6551813  37.5473633
  50.4229323  70.2333843  37.7765523  53.9933203  61.2136083  52.6144283
  53.3777473  61.7215753  52.0859743  53.6729623  60.3134413  52.5570223
  36.9958943  68.0553693  49.4410583  37.1589983  67.5859053  48.6229953
  37.4611393  67.5477253  50.1059423  41.7677713  57.1859453  44.4771153
  41.3245863  57.9668993  44.1455673  42.3262703  57.5089343  45.1842093
  46.0547523  60.0527973  50.0806473  45.5926893  60.2610993  50.8926413
  45.6525633  59.2387323  49.7777143  51.0552033  61.2736923  51.2103133
  50.2045623  60.9742673  51.5312203  50.8953823  61.5178933  50.2986953
  48.1501743  62.7738673  53.3101923  48.4755153  61.9402423  52.9704153
  48.9382073  63.2967193  53.4580253  44.8836533  56.8070153  39.3576983
  44.2590713  56.8030023  40.0830293  44.7966653  55.9401113  38.9612953
  43.8053613  57.7306783  46.3360753  44.1025943  58.6369613  46.2552773
  44.3539173  57.2425563  45.7220323  41.5591933  62.3093023  42.2052403
  41.3332853  62.0930193  43.1099023  40.7784463  62.7421483  41.8598373
  48.7889693  62.3156393  40.8043053  48.1898583  63.0392193  40.6206673
  49.3369303  62.2533173  40.0219503  43.9991143  63.2078603  52.8712673
  43.9034743  62.2673333  52.7213073  44.8423123  63.4293673  52.4760743
  47.3954563  60.9519933  42.8346333  47.7884133  61.2692133  42.0215023
  47.7571413  60.0731813  42.9490853  39.1301683  59.6192273  51.0246453
  38.7365073  60.4667483  51.2319233  38.4420083  58.9818643  51.2155093
  45.7046733  59.7027243  54.0943193  45.0145053  59.5099443  54.7289283
  46.4479033  59.9861883  54.6267493  36.4318733  57.5420733  45.0576533
  36.1431783  58.1123593  45.7701513  37.1764493  57.0625183  45.4207763
  36.6188963  61.4840853  36.2679253  36.5363633  62.4271613  36.4094243
  36.2672023  61.3415763  35.3891603  47.9809703  63.5425683  46.9297113
  47.2490823  64.0512493  47.2787213  47.5834043  62.7255663  46.6285893
  44.4187093  60.2179883  45.3349603  44.4223153  59.7769833  44.4854143
  45.3138213  60.5397213  45.4421423  40.2689473  60.1006373  44.2943813
  39.9289523  60.5781603  45.0510863  39.5066793  59.6471493  43.9344913
  44.4807243  61.2191963  38.3256363  44.6020063  61.1778443  39.2742183
  44.0955753  62.0816113  38.1703093  48.4435613  58.9959363  46.3420053
  48.4608353  59.4468013  47.1861903  48.1951193  58.0965003  46.5553493
  43.4928743  63.5293103  37.7239663  42.9245643  63.0811353  37.0975573
  44.2017743  63.8885883  37.1904813  51.8706363  56.4091543  52.1806433
  52.1952133  55.6781203  52.7064413  51.9062873  56.0905183  51.2787423
  38.5697923  67.4305123  51.6006393  38.1852713  66.7898793  52.1989353
  38.8810113  68.1341243  52.1701123  44.7195063  64.2781663  47.0815013
  45.0865193  63.8040233  47.8276353  44.5300123  65.1523233  47.4223353
  37.5835553  59.0225353  43.2108483  37.2982473  58.6581023  44.0487103
  37.5214413  58.2905813  42.5971623  42.5094433  63.3190303  49.3999223
  42.2051503  64.1982283  49.6249583  43.4640893  63.3790093  49.4356663
  41.0376223  67.5251293  39.9966073  40.2638483  66.9848913  39.8364793
  41.7670853  67.0057903  39.6583833  51.7964203  66.5216653  45.7892463
  52.5163323  67.0171943  45.3988573  51.5946023  65.8434543  45.1446333
  47.2574143  57.9154613  39.9321853  46.4438753  57.4167783  39.8567163
  47.0636093  58.7552863  39.5158203  47.1783003  66.5925713  51.6761463
  47.1120313  65.6721383  51.4219053  46.5488143  66.6901153  52.3906103
  49.9722533  62.2874263  38.2284013  50.8602153  62.5991493  38.0535353
  49.9427623  61.4146513  37.8364593  41.0813623  67.1931673  43.6344883
  41.5992293  66.3899933  43.5801773  40.6297643  67.1310813  44.4761713
  45.9683123  68.4597953  38.9072183  46.3098823  69.2040183  38.4115503
  45.1395833  68.7729073  39.2697013  38.5658163  64.1593043  50.5470583
  38.2073103  64.8246893  51.1343923  38.2712723  63.3276593  50.9183203
  41.7671283  64.6177283  53.4310133  41.4671423  64.7634463  52.5337953
  42.5382523  64.0582573  53.3383523  47.1099733  69.4146283  51.4265263
  47.1244273  68.4827243  51.2084173  46.4024833  69.5006043  52.0655033
  52.2436803  63.5986103  37.6963873  52.1600523  64.0300323  36.8460313
  52.9630993  64.0584453  38.1290693  53.3210943  66.0553623  50.7733843
  52.5959133  66.6482403  50.5763233  53.8486403  66.0477163  49.9747213
  53.2724053  70.4528363  40.4246003  52.6300213  69.7983983  40.6989723
  52.8854713  70.8583453  39.6486673  48.8510533  67.7813793  44.2717693
  49.2034353  67.1841923  43.6119063  47.9672863  67.4558023  44.4425943
  44.9373813  68.5411483  41.6788103  45.6244943  69.0880693  42.0595693
  44.1506233  69.0852213  41.7137713  37.0766213  64.1584303  37.1705183
  37.9461063  64.4409103  37.4541103  36.5856533  64.9720173  37.0553993
  44.2401023  65.5457513  41.2913463  44.6963803  66.3562763  41.5173653
  43.8889233  65.2280653  42.1231953  46.5433633  71.0563853  48.5205763
  47.1875853  71.2623233  49.1979183  46.9063073  70.2952253  48.0676613
  40.1412803  55.8895163  41.7635983  40.0127433  55.8813063  42.7120903
  39.3174823  56.2278253  41.4126993  47.8165713  69.0596203  47.2383213
  48.4587943  68.3589363  47.3515383  48.3415063  69.8394643  47.0580103
  51.6621433  69.3444823  36.9622353  51.4359013  68.6275263  37.5546993
  51.2717633  69.0957263  36.1244103  49.5903333  69.8591103  50.4419273
  49.9259573  70.4457793  51.1197193  48.6703673  69.7283813  50.6717063
  37.1406733  57.6486283  51.2242683  36.4265253  57.8483203  51.8295293
  37.5601773  56.8725853  51.5957483  51.2437683  67.2616763  38.6236513
  50.9559383  67.7229453  39.4114393  52.0389853  66.8014533  38.8920733
  45.4191913  69.9082433  53.6107333  45.0988783  69.1891673  54.1553023
  44.7450273  70.5837503  53.6843393  39.0612723  65.9757773  39.2987243
  38.4540673  66.7156673  39.3082543  39.5362073  66.0657133  38.4725443
  48.6345513  60.1408593  48.9744133  49.0026333  59.3203803  49.3023703
  47.7743713  60.2010483  49.3899783  52.0007543  59.0965533  39.7831693
  51.3720703  59.2011203  39.0689923  51.5059463  59.3162313  40.5725573
  46.4465683  70.8171123  37.2165673  46.5477663  70.6135113  36.2867653
  45.5467423  70.5629403  37.4213453  43.9691573  61.3751483  41.1989573
  43.2607723  61.8437823  41.6403183  44.2536053  60.7173493  41.8334763
  45.5947503  62.7948183  49.1982103  46.0932753  63.2694003  49.8633953
  45.7370453  61.8711703  49.4052133  48.0007003  58.1002143  42.6385363
  47.8774783  58.1188273  41.6894873  48.9491563  58.1481083  42.7583763
  42.1726593  59.6836563  38.5740283  43.0217123  60.1206713  38.5080473
  41.8057863  59.9956823  39.4012343  52.8014363  59.0116143  50.0410493
  52.2987963  59.7521543  50.3804303  53.6171023  59.4000143  49.7247283
  51.0936373  64.2549323  43.4871853  50.1526513  64.2699553  43.6619543
  51.4080443  63.4685283  43.9332153  41.0718013  65.9368923  37.0475813
  41.8381283  65.8250283  37.6101243  41.1492703  65.2406893  36.3952583
  39.7664773  63.3693993  37.7308703  39.8468363  62.4221503  37.8426103
  40.6584523  63.7000873  37.8369363  37.4524963  69.5862953  40.7084753
  36.5264743  69.8284093  40.6990163  37.9181393  70.4137213  40.5869503
  48.4102393  68.8115323  53.9704233  47.8040553  68.8346923  53.2299983
  48.1056503  68.0798363  54.5071483  37.2935573  65.1908913  52.9664873
  37.7974593  64.6116193  53.5381103  36.5542993  65.4749143  53.5041243
  44.1959193  67.9123103  36.5211163  44.0909833  67.2975453  37.2472543
  44.0283413  67.3888993  35.7374173  44.3473513  66.5979903  52.5000393
  43.5819183  67.1664903  52.4155063  44.5289473  66.3056113  51.6068623
  47.4361923  66.9743133  37.1253153  46.8872023  67.4212433  37.7695893
  48.0581183  66.4692383  37.6490823  51.4896863  68.3285233  53.0575413
  52.2306333  68.6660993  52.5542873  50.7269543  68.4977293  52.5045183
  39.3258653  63.3338503  53.8614943  39.3663993  63.0352373  54.7700173
  40.1804153  63.7346113  53.7022463  43.1037043  65.9334053  39.0218453
  43.5253463  65.7673923  39.8649843  43.2287883  65.1234283  38.5273593
  41.2664463  61.9130603  51.8289433  40.7360923  61.4221553  51.2012773
  41.9352533  62.3414803  51.2947363  45.6164683  64.9571663  36.2695553
  46.1370343  64.2420683  35.9036703  46.2633083  65.5957533  36.5696063
  50.1642523  66.3800063  51.5930623  50.5783543  66.5345143  52.4421043
  49.2293523  66.5055283  51.7556403  50.6364693  63.7196223  53.5969773
  51.2185463  62.9648543  53.5090253  50.8126463  64.2503663  52.8201253
  41.7536763  58.8792973  51.9086723  41.6593633  58.2613723  51.1837593
  41.1734153  59.6059263  51.6816633  44.5198203  57.4366213  48.9414113
  44.0715503  57.4590473  48.0959663  43.8863403  57.0385233  49.5384413
  44.9257753  66.3320543  49.5626553  45.3445863  67.1753273  49.3902793
  44.0066383  66.4692583  49.3333333  47.2621653  64.0636723  50.9464393
  47.3817863  63.4677863  51.6859233  48.1215653  64.1006413  50.5265693
  49.6009553  64.6173913  49.5226903  49.0744773  65.1416533  48.9192043
  49.9440893  65.2501303  50.1536633  41.9995943  62.0067283  35.9676613
  41.7985003  61.1434643  36.3289953  41.8287993  61.9200643  35.0298213
  44.0290423  60.6058073  52.2040213  44.6190113  60.2973923  52.8918033
  43.2110663  60.1337823  52.3600113  48.8483853  60.2223883  52.4373233
  48.1599373  59.5605423  52.3723223  49.5689873  59.7762153  52.8821693
  49.4784253  56.8175513  38.4963493  49.7586543  55.9743413  38.8522913
  48.7049983  57.0498623  39.0102243  40.7978743  59.1067903  35.9554493
  41.1004643  59.1135333  35.0473643  41.5373333  58.7565763  36.4522153
  44.0163673  58.0502523  36.9410693  43.6685673  57.3726513  36.3613143
  44.2176443  57.5892033  37.7554083  39.8208873  68.4110323  36.7884293
  40.2583743  68.9539993  37.4441873  40.3056603  67.5857273  36.7980633
  37.0354673  71.1999353  44.2404553  37.3657683  70.3320413  44.0083193
  37.4645673  71.4057873  45.0709513  41.6316593  69.5308363  41.9006523
  41.3312133  69.4073333  42.8010433  41.5254083  68.6716953  41.4922253
  54.4008513  69.3104763  36.6033203  53.5701473  69.3781413  37.0740433
  54.5780343  70.2008883  36.3000063  53.8564973  66.0552243  39.1067403
  54.6183883  66.6248893  39.2127093  53.8719343  65.4879443  39.8775713
  37.3569313  64.5790173  43.3375063  36.7018153  64.3101813  42.6934763
  38.1947263  64.4694653  42.8877043  54.8624943  66.9102343  43.9509333
  55.2333773  66.1269663  43.5445303  55.5026873  67.5991443  43.7726633
  51.8458703  68.2938923  49.3639653  51.0318543  68.7236083  49.6265443
  52.2532903  68.9057333  48.7508703  53.9084143  66.3486613  36.2639923
  54.1832983  67.2565493  36.1359143  53.7194883  66.2849143  37.2001913
  50.3059753  59.3731463  37.5593553  50.7244633  59.1862443  36.7190213
  49.9995813  58.5210513  37.8696483  53.8049483  64.2855603  41.2569353
  53.4293083  63.5183533  40.8250643  53.0752603  64.6678303  41.7444283
  38.3945243  64.9642743  47.8778403  38.7618283  64.8770143  48.7574423
  37.8256063  64.2009293  47.7785263  53.1949103  63.4327123  50.8908873
  52.9635193  63.2039873  49.9906823  53.4553653  64.3526673  50.8453763
  37.9461243  61.8751833  51.7836823  37.0517293  61.8418593  52.1230533
  38.4858793  62.0738623  52.5488073  51.6337173  58.6583553  53.6688573
  52.5107353  58.6666953  54.0522573  51.6458013  57.9214393  53.0580923
  36.5707393  61.7889103  39.2800393  35.6671473  62.0519303  39.1052053
  37.0548013  62.0600273  38.5000353  53.0800443  62.5113093  44.5576593
  53.6037923  62.0175743  43.9266763  53.6659863  62.6463453  45.3024163
  53.2590163  62.5952963  48.0796143  52.3092873  62.5616503  48.1941133
  53.4403173  63.5053073  47.8445913  39.1134603  60.8454643  37.1894773
  39.8226303  60.4237863  36.7042053  38.3974543  60.9129873  36.5578123
  38.7608763  56.8993973  36.2297423  39.4836893  57.4402913  36.5478643
  39.0333283  56.6257393  35.3538963  52.5700413  61.7686443  40.4969003
  53.0659533  61.5357313  41.2817883  52.3716483  60.9298283  40.0806643
  38.4500953  56.1500163  46.1320043  39.0977143  55.5997543  45.6915203
  38.8702793  56.4043313  46.9535853  53.9987573  60.4047393  43.0306683
  53.8886853  60.2503433  43.9688953  54.7595163  59.8768333  42.7882093
  52.3453293  56.3441523  49.4889683  52.9825513  56.9575663  49.8548873
  52.4928183  56.3802183  48.5438913  54.8877843  58.2355313  36.2712823
  55.8127153  58.1036493  36.0631113  54.8653633  58.3148133  37.2249273
  54.9616333  59.0065973  38.8969533  54.1667833  58.9411093  39.4262443
  55.1659613  59.9416613  38.8854883  38.2032953  56.3055833  48.8745363
  37.8547773  56.7619653  49.6403543  37.8720653  55.4112963  48.9567793
  39.8097323  69.4775433  53.0398553  39.7666953  69.1068343  53.9213013
  39.9408333  70.4153003  53.1800373  43.5103353  71.0335023  48.6408273
  43.2694713  71.3009583  47.7538793  44.4505993  71.2040753  48.6959133
  45.7157773  57.4967713  52.3964783  45.6546663  58.0889543  53.1460193
  46.6558153  57.3893673  52.2515043  48.3532333  57.1537773  52.0357073
  48.9672743  57.4717063  51.3738153  48.8981893  56.6686363  52.6552933
  38.8753593  55.8332033  52.1496133  39.4236583  55.6520083  51.3862243
  38.9408903  55.0426143  52.6852443  49.0940373  55.7169913  48.3626363
  48.2200213  56.0505023  48.1599293  48.9851123  55.2443093  49.1878233
  50.0012353  57.9240783  49.7468083  49.6725713  57.1092543  49.3669813
  50.9494653  57.8810593  49.6233773  39.2797583  69.7896063  49.1104373
  38.5531643  69.1701353  49.0430323  39.3406733  70.1836673  48.2402453
  46.8415193  56.6339753  47.3019273  46.0586983  57.1085253  47.5816033
  46.5478123  55.7294583  47.1932453  51.3936263  57.3362853  45.3468363
  51.8344353  57.2807953  44.4989963  51.1243853  58.2520863  45.4178543
  53.2574833  56.9678093  43.3577183  53.1963233  56.0239313  43.2108203
  54.0366863  57.0758183  43.9030643  38.1855603  56.9387233  39.8232993
  38.9434963  57.0516113  39.2497023  37.7232773  57.7756433  39.7776423
  44.7269413  59.0526503  42.8135303  43.9143923  58.6783393  42.4731183
  45.2311053  58.2971583  43.1156493  49.2294393  55.7168953  44.0518373
  49.8323763  56.2889163  44.5266893  48.4887383  56.2808393  43.8292273
  52.3728993  56.1190513  39.3258653  52.5679623  57.0173963  39.5926083
  51.5858863  55.8877593  39.8191603  40.5580753  57.4651283  38.3634963
  41.0873513  56.6781083  38.2342913  41.1909073  58.1442473  38.5970493
  42.7518593  57.2026423  41.4180353  42.1221333  56.5013733  41.5850483
  42.2123733  57.9630553  41.2013513  42.8774153  56.4810403  53.8532843
  42.5958423  56.9844003  53.0893663  43.2593853  55.6832153  53.4874973
  40.9298043  69.8650793  38.6446853  40.3006923  70.3335893  39.1932683
  41.0445873  69.0200013  39.0793043  49.4789613  55.8963983  54.4313313
  49.3655063  56.2158593  55.3264833  50.2959353  56.2976493  54.1350593
  48.3847763  63.9156453  24.7948053  48.3041813  63.0011063  24.5239763
  47.9712183  64.4123523  24.0887763  46.5165803  65.6935473  26.6757323
  45.7407903  65.2135913  26.9655893  47.1678733  65.0141123  26.5013483
  40.5331633  66.0055283  27.5533083  39.7016513  65.7503993  27.9529593
  41.1412613  66.0766053  28.2891003  50.5373233  70.0995663  25.4556453
  50.0754763  69.3282903  25.7843623  51.3498783  70.1261733  25.9608903
  40.5132893  70.0395373  27.7491103  40.8160933  69.1493113  27.5701323
  41.2576483  70.5965593  27.5213353  38.9423583  60.9657173  21.3375473
  38.0540283  61.3073143  21.2355353  39.2264773  60.7657493  20.4456303
  36.9056593  63.5662823  27.2215173  37.4772703  62.7985023  27.2218813
  36.9058133  63.8651583  26.3121783  45.9574793  68.3692663  26.6827483
  45.8883073  67.4282603  26.5216613  46.7194653  68.4594073  27.2550053
  38.1481463  58.9747183  29.0084103  37.9684303  58.0772933  29.2886863
  37.7461543  59.5219053  29.6831053  46.9879963  61.1763043  26.9096413
  47.3644783  60.3034923  26.7970083  46.8899473  61.5121743  26.0186853
  41.1184973  59.5488673  22.3713853  41.2251723  60.4492403  22.6782613
  40.2077333  59.5006643  22.0808503  50.7704083  58.6713483  23.8424753
  51.5913703  58.1810053  23.8850233  50.8038163  59.2611143  24.5956593
  38.7668133  61.4707683  27.6166443  39.4478243  61.7346053  28.2353843
  38.4516183  60.6308553  27.9504453  42.9592703  62.5175043  26.7039033
  43.4670923  63.0156013  27.3444053  43.4905943  61.7410243  26.5278393
  55.0603633  60.6880233  30.4068383  54.3555803  61.0761943  29.8883493
  55.3261553  61.3830523  31.0089313  41.2428803  57.1573603  30.9702453
  41.2447243  57.6745993  30.1648353  40.4133113  56.6803783  30.9472383
  47.6299893  67.2692913  22.4692353  47.0117163  67.7342363  21.9055073
  48.1423143  67.9620393  22.8861863  42.4931653  66.7968783  29.1475953
  42.1601033  67.4237703  29.7897023  42.6698333  67.3230663  28.3677623
  51.0065563  60.6113863  26.6152293  50.3021133  60.8998753  27.1955403
  51.3677723  61.4213973  26.2551853  40.9244133  58.8683563  28.9772903
  41.2660943  59.7125613  28.6826773  39.9859943  59.0167303  29.0938243
  41.7050753  68.7649583  30.9625133  42.3224753  69.4400663  30.6809583
  40.8443873  69.1737563  30.8712633  36.9983093  67.9549443  19.8431983
  36.6211073  68.4436543  19.1116883  37.2556163  68.6274723  20.4738513
  52.6228343  70.2288993  28.8779773  51.9391863  70.8988103  28.8696443
  53.1622633  70.4269643  28.1124633  54.0752483  60.0568653  27.0061503
  53.1277393  60.0907633  27.1376933  54.4002473  60.8707603  27.3910863
  44.6072023  56.3565833  25.3017493  44.9147003  55.8012723  24.5852993
  43.6772723  56.4910293  25.1190483  51.4532503  68.7949343  22.6815123
  51.3428833  67.8523673  22.8064543  51.4500753  69.1564983  23.5677883
  49.5572523  66.9762963  28.9207563  49.9741313  66.7623073  28.0861023
  50.2812343  67.2335753  29.4916183  46.9952783  64.4214663  22.0377613
  46.0682063  64.3552043  22.2666083  47.1477603  65.3594793  21.9232853
  46.9821863  60.6931663  19.0344773  46.0425533  60.8545623  19.1197233
  47.3005123  61.4117343  18.4880763  53.5034623  65.3750183  29.0123803
  52.6753253  65.4443273  28.5373933  54.0985103  65.9604493  28.5439633
  51.0250073  65.9834963  22.5412863  50.4062493  65.6454513  21.8939163
  51.0074523  65.3394723  23.2492053  50.4676633  62.1619503  29.9578673
  50.0547813  62.9873213  30.2118663  49.7352583  61.5764543  29.7655033
  42.6009423  64.9479403  24.8197343  42.1966423  64.2356653  24.3243243
  42.6872543  64.6032643  25.7085383  43.0691123  68.6346963  26.9836553
  42.7719413  68.0292433  26.3044333  44.0190943  68.6724273  26.8725913
  41.3138043  61.7222613  28.5996383  41.8652633  61.8317953  27.8249633
  41.8281553  62.0960213  29.3151613  42.1609553  68.3728653  33.6344353
  41.2638083  68.5968623  33.8817753  42.1862423  68.4963593  32.6855753
  49.2014773  65.2221773  19.5485613  49.6408053  64.3844203  19.4023433
  49.9143193  65.8551173  19.6349753  40.9880773  65.2441973  32.2101723
  40.8488543  66.1164773  32.5789123  40.1062133  64.9014783  32.0649663
  47.3110153  70.1617843  23.5166853  47.7506063  70.9042173  23.1022243
  47.2497043  70.4044413  24.4405813  52.7831913  56.4764583  17.8626653
  52.4704573  56.5691413  18.7625723  53.5444383  57.0545613  17.8124083
  39.3014053  63.8424383  22.3203993  39.1811653  64.5686473  21.7085263
  38.9914943  63.0727293  21.8431903  36.9399423  67.0139523  28.1272633
  37.0179843  67.1488293  27.1828353  37.5541103  66.3055413  28.3200753
  38.1847053  68.7139713  24.5378813  37.7775133  68.8554303  23.6832413
  39.0760063  68.4299873  24.3350023  54.1409193  69.1603623  32.8751053
  54.2672253  68.9215503  31.9568233  54.1830573  68.3288163  33.3473133
  49.6806463  70.6574523  19.4327863  48.9871623  70.6551813  18.7730143
  50.4229323  70.2333843  19.0022033  53.9933203  61.2136083  33.8400793
  53.3777473  61.7215753  33.3116253  53.6729623  60.3134413  33.7826733
  36.9958943  68.0553693  30.6667093  37.1589983  67.5859053  29.8486463
  37.4611393  67.5477253  31.3315933  41.7677713  57.1859453  25.7027663
  41.3245863  57.9668993  25.3712183  42.3262703  57.5089343  26.4098603
  46.0547523  60.0527973  31.3062983  45.5926893  60.2610993  32.1182923
  45.6525633  59.2387323  31.0033653  51.0552033  61.2736923  32.4359643
  50.2045623  60.9742673  32.7568713  50.8953823  61.5178933  31.5243463
  48.1501743  62.7738673  34.5358433  48.4755153  61.9402423  34.1960663
  48.9382073  63.2967193  34.6836763  44.8836533  56.8070153  20.5833493
  44.2590713  56.8030023  21.3086803  44.7966653  55.9401113  20.1869463
  43.8053613  57.7306783  27.5617263  44.1025943  58.6369613  27.4809283
  44.3539173  57.2425563  26.9476833  41.5591933  62.3093023  23.4308913
  41.3332853  62.0930193  24.3355533  40.7784463  62.7421483  23.0854883
  48.7889693  62.3156393  22.0299563  48.1898583  63.0392193  21.8463183
  49.3369303  62.2533173  21.2476013  43.9991143  63.2078603  34.0969183
  43.9034743  62.2673333  33.9469583  44.8423123  63.4293673  33.7017253
  47.3954563  60.9519933  24.0602843  47.7884133  61.2692133  23.2471533
  47.7571413  60.0731813  24.1747363  39.1301683  59.6192273  32.2502963
  38.7365073  60.4667483  32.4575743  38.4420083  58.9818643  32.4411603
  45.7046733  59.7027243  35.3199703  45.0145053  59.5099443  35.9545793
  46.4479033  59.9861883  35.8524003  36.4318733  57.5420733  26.2833043
  36.1431783  58.1123593  26.9958023  37.1764493  57.0625183  26.6464273
  36.6188963  61.4840853  17.4935763  36.5363633  62.4271613  17.6350753
  36.2672023  61.3415763  16.6148113  47.9809703  63.5425683  28.1553623
  47.2490823  64.0512493  28.5043723  47.5834043  62.7255663  27.8542403
  44.4187093  60.2179883  26.5606113  44.4223153  59.7769833  25.7110653
  45.3138213  60.5397213  26.6677933  40.2689473  60.1006373  25.5200323
  39.9289523  60.5781603  26.2767373  39.5066793  59.6471493  25.1601423
  44.4807243  61.2191963  19.5512873  44.6020063  61.1778443  20.4998693
  44.0955753  62.0816113  19.3959603  48.4435613  58.9959363  27.5676563
  48.4608353  59.4468013  28.4118413  48.1951193  58.0965003  27.7810003
  43.4928743  63.5293103  18.9496173  42.9245643  63.0811353  18.3232083
  44.2017743  63.8885883  18.4161323  51.8706363  56.4091543  33.4062943
  52.1952133  55.6781203  33.9320923  51.9062873  56.0905183  32.5043933
  38.5697923  67.4305123  32.8262903  38.1852713  66.7898793  33.4245863
  38.8810113  68.1341243  33.3957633  44.7195063  64.2781663  28.3071523
  45.0865193  63.8040233  29.0532863  44.5300123  65.1523233  28.6479863
  37.5835553  59.0225353  24.4364993  37.2982473  58.6581023  25.2743613
  37.5214413  58.2905813  23.8228133  42.5094433  63.3190303  30.6255733
  42.2051503  64.1982283  30.8506093  43.4640893  63.3790093  30.6613173
  41.0376223  67.5251293  21.2222583  40.2638483  66.9848913  21.0621303
  41.7670853  67.0057903  20.8840343  51.7964203  66.5216653  27.0148973
  52.5163323  67.0171943  26.6245083  51.5946023  65.8434543  26.3702843
  47.2574143  57.9154613  21.1578363  46.4438753  57.4167783  21.0823673
  47.0636093  58.7552863  20.7414713  47.1783003  66.5925713  32.9017973
  47.1120313  65.6721383  32.6475563  46.5488143  66.6901153  33.6162613
  49.9722533  62.2874263  19.4540523  50.8602153  62.5991493  19.2791863
  49.9427623  61.4146513  19.0621103  41.0813623  67.1931673  24.8601393
  41.5992293  66.3899933  24.8058283  40.6297643  67.1310813  25.7018223
  45.9683123  68.4597953  20.1328693  46.3098823  69.2040183  19.6372013
  45.1395833  68.7729073  20.4953523  38.5658163  64.1593043  31.7727093
  38.2073103  64.8246893  32.3600433  38.2712723  63.3276593  32.1439713
  41.7671283  64.6177283  34.6566643  41.4671423  64.7634463  33.7594463
  42.5382523  64.0582573  34.5640033  47.1099733  69.4146283  32.6521773
  47.1244273  68.4827243  32.4340683  46.4024833  69.5006043  33.2911543
  52.2436803  63.5986103  18.9220383  52.1600523  64.0300323  18.0716823
  52.9630993  64.0584453  19.3547203  53.3210943  66.0553623  31.9990353
  52.5959133  66.6482403  31.8019743  53.8486403  66.0477163  31.2003723
  53.2724053  70.4528363  21.6502513  52.6300213  69.7983983  21.9246233
  52.8854713  70.8583453  20.8743183  48.8510533  67.7813793  25.4974203
  49.2034353  67.1841923  24.8375573  47.9672863  67.4558023  25.6682453
  44.9373813  68.5411483  22.9044613  45.6244943  69.0880693  23.2852203
  44.1506233  69.0852213  22.9394223  37.0766213  64.1584303  18.3961693
  37.9461063  64.4409103  18.6797613  36.5856533  64.9720173  18.2810503
  44.2401023  65.5457513  22.5169973  44.6963803  66.3562763  22.7430163
  43.8889233  65.2280653  23.3488463  46.5433633  71.0563853  29.7462273
  47.1875853  71.2623233  30.4235693  46.9063073  70.2952253  29.2933123
  40.1412803  55.8895163  22.9892493  40.0127433  55.8813063  23.9377413
  39.3174823  56.2278253  22.6383503  47.8165713  69.0596203  28.4639723
  48.4587943  68.3589363  28.5771893  48.3415063  69.8394643  28.2836613
  51.6621433  69.3444823  18.1878863  51.4359013  68.6275263  18.7803503
  51.2717633  69.0957263  17.3500613  49.5903333  69.8591103  31.6675783
  49.9259573  70.4457793  32.3453703  48.6703673  69.7283813  31.8973573
  37.1406733  57.6486283  32.4499193  36.4265253  57.8483203  33.0551803
  37.5601773  56.8725853  32.8213993  51.2437683  67.2616763  19.8493023
  50.9559383  67.7229453  20.6370903  52.0389853  66.8014533  20.1177243
  45.4191913  69.9082433  34.8363843  45.0988783  69.1891673  35.3809533
  44.7450273  70.5837503  34.9099903  39.0612723  65.9757773  20.5243753
  38.4540673  66.7156673  20.5339053  39.5362073  66.0657133  19.6981953
  48.6345513  60.1408593  30.2000643  49.0026333  59.3203803  30.5280213
  47.7743713  60.2010483  30.6156293  52.0007543  59.0965533  21.0088203
  51.3720703  59.2011203  20.2946433  51.5059463  59.3162313  21.7982083
  46.4465683  70.8171123  18.4422183  46.5477663  70.6135113  17.5124163
  45.5467423  70.5629403  18.6469963  43.9691573  61.3751483  22.4246083
  43.2607723  61.8437823  22.8659693  44.2536053  60.7173493  23.0591273
  45.5947503  62.7948183  30.4238613  46.0932753  63.2694003  31.0890463
  45.7370453  61.8711703  30.6308643  48.0007003  58.1002143  23.8641873
  47.8774783  58.1188273  22.9151383  48.9491563  58.1481083  23.9840273
  42.1726593  59.6836563  19.7996793  43.0217123  60.1206713  19.7336983
  41.8057863  59.9956823  20.6268853  52.8014363  59.0116143  31.2667003
  52.2987963  59.7521543  31.6060813  53.6171023  59.4000143  30.9503793
  51.0936373  64.2549323  24.7128363  50.1526513  64.2699553  24.8876053
  51.4080443  63.4685283  25.1588663  41.0718013  65.9368923  18.2732323
  41.8381283  65.8250283  18.8357753  41.1492703  65.2406893  17.6209093
  39.7664773  63.3693993  18.9565213  39.8468363  62.4221503  19.0682613
  40.6584523  63.7000873  19.0625873  37.4524963  69.5862953  21.9341263
  36.5264743  69.8284093  21.9246673  37.9181393  70.4137213  21.8126013
  48.4102393  68.8115323  35.1960743  47.8040553  68.8346923  34.4556493
  48.1056503  68.0798363  35.7327993  37.2935573  65.1908913  34.1921383
  37.7974593  64.6116193  34.7637613  36.5542993  65.4749143  34.7297753
  44.1959193  67.9123103  17.7467673  44.0909833  67.2975453  18.4729053
  44.0283413  67.3888993  16.9630683  44.3473513  66.5979903  33.7256903
  43.5819183  67.1664903  33.6411573  44.5289473  66.3056113  32.8325133
  47.4361923  66.9743133  18.3509663  46.8872023  67.4212433  18.9952403
  48.0581183  66.4692383  18.8747333  51.4896863  68.3285233  34.2831923
  52.2306333  68.6660993  33.7799383  50.7269543  68.4977293  33.7301693
  39.3258653  63.3338503  35.0871453  39.3663993  63.0352373  35.9956683
  40.1804153  63.7346113  34.9278973  43.1037043  65.9334053  20.2474963
  43.5253463  65.7673923  21.0906353  43.2287883  65.1234283  19.7530103
  41.2664463  61.9130603  33.0545943  40.7360923  61.4221553  32.4269283
  41.9352533  62.3414803  32.5203873  45.6164683  64.9571663  17.4952063
  46.1370343  64.2420683  17.1293213  46.2633083  65.5957533  17.7952573
  50.1642523  66.3800063  32.8187133  50.5783543  66.5345143  33.6677553
  49.2293523  66.5055283  32.9812913  50.6364693  63.7196223  34.8226283
  51.2185463  62.9648543  34.7346763  50.8126463  64.2503663  34.0457763
  41.7536763  58.8792973  33.1343233  41.6593633  58.2613723  32.4094103
  41.1734153  59.6059263  32.9073143  44.5198203  57.4366213  30.1670623
  44.0715503  57.4590473  29.3216173  43.8863403  57.0385233  30.7640923
  44.9257753  66.3320543  30.7883063  45.3445863  67.1753273  30.6159303
  44.0066383  66.4692583  30.5589843  47.2621653  64.0636723  32.1720903
  47.3817863  63.4677863  32.9115743  48.1215653  64.1006413  31.7522203
  49.6009553  64.6173913  30.7483413  49.0744773  65.1416533  30.1448553
  49.9440893  65.2501303  31.3793143  41.9995943  62.0067283  17.1933123
  41.7985003  61.1434643  17.5546463  41.8287993  61.9200643  16.2554723
  44.0290423  60.6058073  33.4296723  44.6190113  60.2973923  34.1174543
  43.2110663  60.1337823  33.5856623  48.8483853  60.2223883  33.6629743
  48.1599373  59.5605423  33.5979733  49.5689873  59.7762153  34.1078203
  49.4784253  56.8175513  19.7220003  49.7586543  55.9743413  20.0779423
  48.7049983  57.0498623  20.2358753  40.7978743  59.1067903  17.1811003
  41.1004643  59.1135333  16.2730153  41.5373333  58.7565763  17.6778663
  44.0163673  58.0502523  18.1667203  43.6685673  57.3726513  17.5869653
  44.2176443  57.5892033  18.9810593  39.8208873  68.4110323  18.0140803
  40.2583743  68.9539993  18.6698383  40.3056603  67.5857273  18.0237143
  37.0354673  71.1999353  25.4661063  37.3657683  70.3320413  25.2339703
  37.4645673  71.4057873  26.2966023  41.6316593  69.5308363  23.1263033
  41.3312133  69.4073333  24.0266943  41.5254083  68.6716953  22.7178763
  54.4008513  69.3104763  17.8289713  53.5701473  69.3781413  18.2996943
  54.5780343  70.2008883  17.5256573  53.8564973  66.0552243  20.3323913
  54.6183883  66.6248893  20.4383603  53.8719343  65.4879443  21.1032223
  37.3569313  64.5790173  24.5631573  36.7018153  64.3101813  23.9191273
  38.1947263  64.4694653  24.1133553  54.8624943  66.9102343  25.1765843
  55.2333773  66.1269663  24.7701813  55.5026873  67.5991443  24.9983143
  51.8458703  68.2938923  30.5896163  51.0318543  68.7236083  30.8521953
  52.2532903  68.9057333  29.9765213  53.9084143  66.3486613  17.4896433
  54.1832983  67.2565493  17.3615653  53.7194883  66.2849143  18.4258423
  50.3059753  59.3731463  18.7850063  50.7244633  59.1862443  17.9446723
  49.9995813  58.5210513  19.0952993  53.8049483  64.2855603  22.4825863
  53.4293083  63.5183533  22.0507153  53.0752603  64.6678303  22.9700793
  38.3945243  64.9642743  29.1034913  38.7618283  64.8770143  29.9830933
  37.8256063  64.2009293  29.0041773  53.1949103  63.4327123  32.1165383
  52.9635193  63.2039873  31.2163333  53.4553653  64.3526673  32.0710273
  37.9461243  61.8751833  33.0093333  37.0517293  61.8418593  33.3487043
  38.4858793  62.0738623  33.7744583  51.6337173  58.6583553  34.8945083
  52.5107353  58.6666953  35.2779083  51.6458013  57.9214393  34.2837433
  36.5707393  61.7889103  20.5056903  35.6671473  62.0519303  20.3308563
  37.0548013  62.0600273  19.7256863  53.0800443  62.5113093  25.7833103
  53.6037923  62.0175743  25.1523273  53.6659863  62.6463453  26.5280673
  53.2590163  62.5952963  29.3052653  52.3092873  62.5616503  29.4197643
  53.4403173  63.5053073  29.0702423  39.1134603  60.8454643  18.4151283
  39.8226303  60.4237863  17.9298563  38.3974543  60.9129873  17.7834633
  38.7608763  56.8993973  17.4553933  39.4836893  57.4402913  17.7735153
  39.0333283  56.6257393  16.5795473  52.5700413  61.7686443  21.7225513
  53.0659533  61.5357313  22.5074393  52.3716483  60.9298283  21.3063153
  38.4500953  56.1500163  27.3576553  39.0977143  55.5997543  26.9171713
  38.8702793  56.4043313  28.1792363  53.9987573  60.4047393  24.2563193
  53.8886853  60.2503433  25.1945463  54.7595163  59.8768333  24.0138603
  52.3453293  56.3441523  30.7146193  52.9825513  56.9575663  31.0805383
  52.4928183  56.3802183  29.7695423  54.8877843  58.2355313  17.4969333
  55.8127153  58.1036493  17.2887623  54.8653633  58.3148133  18.4505783
  54.9616333  59.0065973  20.1226043  54.1667833  58.9411093  20.6518953
  55.1659613  59.9416613  20.1111393  38.2032953  56.3055833  30.1001873
  37.8547773  56.7619653  30.8660053  37.8720653  55.4112963  30.1824303
  39.8097323  69.4775433  34.2655063  39.7666953  69.1068343  35.1469523
  39.9408333  70.4153003  34.4056883  43.5103353  71.0335023  29.8664783
  43.2694713  71.3009583  28.9795303  44.4505993  71.2040753  29.9215643
  45.7157773  57.4967713  33.6221293  45.6546663  58.0889543  34.3716703
  46.6558153  57.3893673  33.4771553  48.3532333  57.1537773  33.2613583
  48.9672743  57.4717063  32.5994663  48.8981893  56.6686363  33.8809443
  38.8753593  55.8332033  33.3752643  39.4236583  55.6520083  32.6118753
  38.9408903  55.0426143  33.9108953  49.0940373  55.7169913  29.5882873
  48.2200213  56.0505023  29.3855803  48.9851123  55.2443093  30.4134743
  50.0012353  57.9240783  30.9724593  49.6725713  57.1092543  30.5926323
  50.9494653  57.8810593  30.8490283  39.2797583  69.7896063  30.3360883
  38.5531643  69.1701353  30.2686833  39.3406733  70.1836673  29.4658963
  46.8415193  56.6339753  28.5275783  46.0586983  57.1085253  28.8072543
  46.5478123  55.7294583  28.4188963  51.3936263  57.3362853  26.5724873
  51.8344353  57.2807953  25.7246473  51.1243853  58.2520863  26.6435053
  53.2574833  56.9678093  24.5833693  53.1963233  56.0239313  24.4364713
  54.0366863  57.0758183  25.1287153  38.1855603  56.9387233  21.0489503
  38.9434963  57.0516113  20.4753533  37.7232773  57.7756433  21.0032933
  44.7269413  59.0526503  24.0391813  43.9143923  58.6783393  23.6987693
  45.2311053  58.2971583  24.3413003  49.2294393  55.7168953  25.2774883
  49.8323763  56.2889163  25.7523403  48.4887383  56.2808393  25.0548783
  52.3728993  56.1190513  20.5515163  52.5679623  57.0173963  20.8182593
  51.5858863  55.8877593  21.0448113  40.5580753  57.4651283  19.5891473
  41.0873513  56.6781083  19.4599423  41.1909073  58.1442473  19.8227003
  42.7518593  57.2026423  22.6436863  42.1221333  56.5013733  22.8106993
  42.2123733  57.9630553  22.4270023  42.8774153  56.4810403  35.0789353
  42.5958423  56.9844003  34.3150173  43.2593853  55.6832153  34.7131483
  40.9298043  69.8650793  19.8703363  40.3006923  70.3335893  20.4189193
  41.0445873  69.0200013  20.3049553  49.4789613  55.8963983  35.6569823
  49.3655063  56.2158593  36.5521343  50.2959353  56.2976493  35.3607103
  48.3847763  63.9156453   6.0204563  48.3041813  63.0011063   5.7496273
  47.9712183  64.4123523   5.3144273  46.5165803  65.6935473   7.9013833
  45.7407903  65.2135913   8.1912403  47.1678733  65.0141123   7.7269993
  40.5331633  66.0055283   8.7789593  39.7016513  65.7503993   9.1786103
  41.1412613  66.0766053   9.5147513  50.5373233  70.0995663   6.6812963
  50.0754763  69.3282903   7.0100133  51.3498783  70.1261733   7.1865413
  40.5132893  70.0395373   8.9747613  40.8160933  69.1493113   8.7957833
  41.2576483  70.5965593   8.7469863  36.9056593  63.5662823   8.4471683
  37.4772703  62.7985023   8.4475323  36.9058133  63.8651583   7.5378293
  45.9574793  68.3692663   7.9083993  45.8883073  67.4282603   7.7473123
  46.7194653  68.4594073   8.4806563  38.1481463  58.9747183  10.2340613
  37.9684303  58.0772933  10.5143373  37.7461543  59.5219053  10.9087563
  46.9879963  61.1763043   8.1352923  47.3644783  60.3034923   8.0226593
  46.8899473  61.5121743   7.2443363  41.1184973  59.5488673   3.5970363
  41.2251723  60.4492403   3.9039123  40.2077333  59.5006643   3.3065013
  50.7704083  58.6713483   5.0681263  51.5913703  58.1810053   5.1106743
  50.8038163  59.2611143   5.8213103  38.7668133  61.4707683   8.8422953
  39.4478243  61.7346053   9.4610353  38.4516183  60.6308553   9.1760963
  42.9592703  62.5175043   7.9295543  43.4670923  63.0156013   8.5700563
  43.4905943  61.7410243   7.7534903  55.0603633  60.6880233  11.6324893
  54.3555803  61.0761943  11.1140003  55.3261553  61.3830523  12.2345823
  41.2428803  57.1573603  12.1958963  41.2447243  57.6745993  11.3904863
  40.4133113  56.6803783  12.1728893  47.6299893  67.2692913   3.6948863
  47.0117163  67.7342363   3.1311583  48.1423143  67.9620393   4.1118373
  42.4931653  66.7968783  10.3732463  42.1601033  67.4237703  11.0153533
  42.6698333  67.3230663   9.5934133  51.0065563  60.6113863   7.8408803
  50.3021133  60.8998753   8.4211913  51.3677723  61.4213973   7.4808363
  40.9244133  58.8683563  10.2029413  41.2660943  59.7125613   9.9083283
  39.9859943  59.0167303  10.3194753  41.7050753  68.7649583  12.1881643
  42.3224753  69.4400663  11.9066093  40.8443873  69.1737563  12.0969143
  52.6228343  70.2288993  10.1036283  51.9391863  70.8988103  10.0952953
  53.1622633  70.4269643   9.3381143  54.0752483  60.0568653   8.2318013
  53.1277393  60.0907633   8.3633443  54.4002473  60.8707603   8.6167373
  44.6072023  56.3565833   6.5274003  44.9147003  55.8012723   5.8109503
  43.6772723  56.4910293   6.3446993  51.4532503  68.7949343   3.9071633
  51.3428833  67.8523673   4.0321053  51.4500753  69.1564983   4.7934393
  49.5572523  66.9762963  10.1464073  49.9741313  66.7623073   9.3117533
  50.2812343  67.2335753  10.7172693  46.9952783  64.4214663   3.2634123
  46.0682063  64.3552043   3.4922593  47.1477603  65.3594793   3.1489363
  53.5034623  65.3750183  10.2380313  52.6753253  65.4443273   9.7630443
  54.0985103  65.9604493   9.7696143  51.0250073  65.9834963   3.7669373
  50.4062493  65.6454513   3.1195673  51.0074523  65.3394723   4.4748563
  50.4676633  62.1619503  11.1835183  50.0547813  62.9873213  11.4375173
  49.7352583  61.5764543  10.9911543  42.6009423  64.9479403   6.0453853
  42.1966423  64.2356653   5.5499753  42.6872543  64.6032643   6.9341893
  43.0691123  68.6346963   8.2093063  42.7719413  68.0292433   7.5300843
  44.0190943  68.6724273   8.0982423  41.3138043  61.7222613   9.8252893
  41.8652633  61.8317953   9.0506143  41.8281553  62.0960213  10.5408123
  42.1609553  68.3728653  14.8600863  41.2638083  68.5968623  15.1074263
  42.1862423  68.4963593  13.9112263  40.9880773  65.2441973  13.4358233
  40.8488543  66.1164773  13.8045633  40.1062133  64.9014783  13.2906173
  47.3110153  70.1617843   4.7423363  47.7506063  70.9042173   4.3278753
  47.2497043  70.4044413   5.6662323  39.3014053  63.8424383   3.5460503
  39.1811653  64.5686473   2.9341773  38.9914943  63.0727293   3.0688413
  36.9399423  67.0139523   9.3529143  37.0179843  67.1488293   8.4084863
  37.5541103  66.3055413   9.5457263  38.1847053  68.7139713   5.7635323
  37.7775133  68.8554303   4.9088923  39.0760063  68.4299873   5.5606533
  54.1409193  69.1603623  14.1007563  54.2672253  68.9215503  13.1824743
  54.1830573  68.3288163  14.5729643  53.9933203  61.2136083  15.0657303
  53.3777473  61.7215753  14.5372763  53.6729623  60.3134413  15.0083243
  36.9958943  68.0553693  11.8923603  37.1589983  67.5859053  11.0742973
  37.4611393  67.5477253  12.5572443  41.7677713  57.1859453   6.9284173
  41.3245863  57.9668993   6.5968693  42.3262703  57.5089343   7.6355113
  46.0547523  60.0527973  12.5319493  45.5926893  60.2610993  13.3439433
  45.6525633  59.2387323  12.2290163  51.0552033  61.2736923  13.6616153
  50.2045623  60.9742673  13.9825223  50.8953823  61.5178933  12.7499973
  48.1501743  62.7738673  15.7614943  48.4755153  61.9402423  15.4217173
  48.9382073  63.2967193  15.9093273  43.8053613  57.7306783   8.7873773
  44.1025943  58.6369613   8.7065793  44.3539173  57.2425563   8.1733343
  41.5591933  62.3093023   4.6565423  41.3332853  62.0930193   5.5612043
  40.7784463  62.7421483   4.3111393  48.7889693  62.3156393   3.2556073
  48.1898583  63.0392193   3.0719693  49.3369303  62.2533173   2.4732523
  43.9991143  63.2078603  15.3225693  43.9034743  62.2673333  15.1726093
  44.8423123  63.4293673  14.9273763  47.3954563  60.9519933   5.2859353
  47.7884133  61.2692133   4.4728043  47.7571413  60.0731813   5.4003873
  39.1301683  59.6192273  13.4759473  38.7365073  60.4667483  13.6832253
  38.4420083  58.9818643  13.6668113  45.7046733  59.7027243  16.5456213
  45.0145053  59.5099443  17.1802303  46.4479033  59.9861883  17.0780513
  36.4318733  57.5420733   7.5089553  36.1431783  58.1123593   8.2214533
  37.1764493  57.0625183   7.8720783  47.9809703  63.5425683   9.3810133
  47.2490823  64.0512493   9.7300233  47.5834043  62.7255663   9.0798913
  44.4187093  60.2179883   7.7862623  44.4223153  59.7769833   6.9367163
  45.3138213  60.5397213   7.8934443  40.2689473  60.1006373   6.7456833
  39.9289523  60.5781603   7.5023883  39.5066793  59.6471493   6.3857933
  48.4435613  58.9959363   8.7933073  48.4608353  59.4468013   9.6374923
  48.1951193  58.0965003   9.0066513  51.8706363  56.4091543  14.6319453
  52.1952133  55.6781203  15.1577433  51.9062873  56.0905183  13.7300443
  38.5697923  67.4305123  14.0519413  38.1852713  66.7898793  14.6502373
  38.8810113  68.1341243  14.6214143  44.7195063  64.2781663   9.5328033
  45.0865193  63.8040233  10.2789373  44.5300123  65.1523233   9.8736373
  37.5835553  59.0225353   5.6621503  37.2982473  58.6581023   6.5000123
  37.5214413  58.2905813   5.0484643  42.5094433  63.3190303  11.8512243
  42.2051503  64.1982283  12.0762603  43.4640893  63.3790093  11.8869683
  41.0376223  67.5251293   2.4479093  40.2638483  66.9848913   2.2877813
  41.7670853  67.0057903   2.1096853  51.7964203  66.5216653   8.2405483
  52.5163323  67.0171943   7.8501593  51.5946023  65.8434543   7.5959353
  47.2574143  57.9154613   2.3834873  46.4438753  57.4167783   2.3080183
  47.0636093  58.7552863   1.9671223  47.1783003  66.5925713  14.1274483
  47.1120313  65.6721383  13.8732073  46.5488143  66.6901153  14.8419123
  41.0813623  67.1931673   6.0857903  41.5992293  66.3899933   6.0314793
  40.6297643  67.1310813   6.9274733  38.5658163  64.1593043  12.9983603
  38.2073103  64.8246893  13.5856943  38.2712723  63.3276593  13.3696223
  41.7671283  64.6177283  15.8823153  41.4671423  64.7634463  14.9850973
  42.5382523  64.0582573  15.7896543  47.1099733  69.4146283  13.8778283
  47.1244273  68.4827243  13.6597193  46.4024833  69.5006043  14.5168053
  53.3210943  66.0553623  13.2246863  52.5959133  66.6482403  13.0276253
  53.8486403  66.0477163  12.4260233  53.2724053  70.4528363   2.8759023
  52.6300213  69.7983983   3.1502743  52.8854713  70.8583453   2.0999693
  48.8510533  67.7813793   6.7230713  49.2034353  67.1841923   6.0632083
  47.9672863  67.4558023   6.8938963  44.9373813  68.5411483   4.1301123
  45.6244943  69.0880693   4.5108713  44.1506233  69.0852213   4.1650733
  44.2401023  65.5457513   3.7426483  44.6963803  66.3562763   3.9686673
  43.8889233  65.2280653   4.5744973  46.5433633  71.0563853  10.9718783
  47.1875853  71.2623233  11.6492203  46.9063073  70.2952253  10.5189633
  40.1412803  55.8895163   4.2149003  40.0127433  55.8813063   5.1633923
  39.3174823  56.2278253   3.8640013  47.8165713  69.0596203   9.6896233
  48.4587943  68.3589363   9.8028403  48.3415063  69.8394643   9.5093123
  49.5903333  69.8591103  12.8932293  49.9259573  70.4457793  13.5710213
  48.6703673  69.7283813  13.1230083  37.1406733  57.6486283  13.6755703
  36.4265253  57.8483203  14.2808313  37.5601773  56.8725853  14.0470503
  45.4191913  69.9082433  16.0620353  45.0988783  69.1891673  16.6066043
  44.7450273  70.5837503  16.1356413  48.6345513  60.1408593  11.4257153
  49.0026333  59.3203803  11.7536723  47.7743713  60.2010483  11.8412803
  43.9691573  61.3751483   3.6502593  43.2607723  61.8437823   4.0916203
  44.2536053  60.7173493   4.2847783  45.5947503  62.7948183  11.6495123
  46.0932753  63.2694003  12.3146973  45.7370453  61.8711703  11.8565153
  48.0007003  58.1002143   5.0898383  47.8774783  58.1188273   4.1407893
  48.9491563  58.1481083   5.2096783  52.8014363  59.0116143  12.4923513
  52.2987963  59.7521543  12.8317323  53.6171023  59.4000143  12.1760303
  51.0936373  64.2549323   5.9384873  50.1526513  64.2699553   6.1132563
  51.4080443  63.4685283   6.3845173  37.4524963  69.5862953   3.1597773
  36.5264743  69.8284093   3.1503183  37.9181393  70.4137213   3.0382523
  48.4102393  68.8115323  16.4217253  47.8040553  68.8346923  15.6813003
  48.1056503  68.0798363  16.9584503  37.2935573  65.1908913  15.4177893
  37.7974593  64.6116193  15.9894123  36.5542993  65.4749143  15.9554263
  44.3473513  66.5979903  14.9513413  43.5819183  67.1664903  14.8668083
  44.5289473  66.3056113  14.0581643  51.4896863  68.3285233  15.5088433
  52.2306333  68.6660993  15.0055893  50.7269543  68.4977293  14.9558203
  39.3258653  63.3338503  16.3127963  39.3663993  63.0352373  17.2213193
  40.1804153  63.7346113  16.1535483  41.2664463  61.9130603  14.2802453
  40.7360923  61.4221553  13.6525793  41.9352533  62.3414803  13.7460383
  50.1642523  66.3800063  14.0443643  50.5783543  66.5345143  14.8934063
  49.2293523  66.5055283  14.2069423  50.6364693  63.7196223  16.0482793
  51.2185463  62.9648543  15.9603273  50.8126463  64.2503663  15.2714273
  41.7536763  58.8792973  14.3599743  41.6593633  58.2613723  13.6350613
  41.1734153  59.6059263  14.1329653  44.5198203  57.4366213  11.3927133
  44.0715503  57.4590473  10.5472683  43.8863403  57.0385233  11.9897433
  44.9257753  66.3320543  12.0139573  45.3445863  67.1753273  11.8415813
  44.0066383  66.4692583  11.7846353  47.2621653  64.0636723  13.3977413
  47.3817863  63.4677863  14.1372253  48.1215653  64.1006413  12.9778713
  49.6009553  64.6173913  11.9739923  49.0744773  65.1416533  11.3705063
  49.9440893  65.2501303  12.6049653  44.0290423  60.6058073  14.6553233
  44.6190113  60.2973923  15.3431053  43.2110663  60.1337823  14.8113133
  48.8483853  60.2223883  14.8886253  48.1599373  59.5605423  14.8236243
  49.5689873  59.7762153  15.3334713  37.0354673  71.1999353   6.6917573
  37.3657683  70.3320413   6.4596213  37.4645673  71.4057873   7.5222533
  41.6316593  69.5308363   4.3519543  41.3312133  69.4073333   5.2523453
  41.5254083  68.6716953   3.9435273  37.3569313  64.5790173   5.7888083
  36.7018153  64.3101813   5.1447783  38.1947263  64.4694653   5.3390063
  54.8624943  66.9102343   6.4022353  55.2333773  66.1269663   5.9958323
  55.5026873  67.5991443   6.2239653  51.8458703  68.2938923  11.8152673
  51.0318543  68.7236083  12.0778463  52.2532903  68.9057333  11.2021723
  53.8049483  64.2855603   3.7082373  53.4293083  63.5183533   3.2763663
  53.0752603  64.6678303   4.1957303  38.3945243  64.9642743  10.3291423
  38.7618283  64.8770143  11.2087443  37.8256063  64.2009293  10.2298283
  53.1949103  63.4327123  13.3421893  52.9635193  63.2039873  12.4419843
  53.4553653  64.3526673  13.2966783  37.9461243  61.8751833  14.2349843
  37.0517293  61.8418593  14.5743553  38.4858793  62.0738623  15.0001093
  51.6337173  58.6583553  16.1201593  52.5107353  58.6666953  16.5035593
  51.6458013  57.9214393  15.5093943  53.0800443  62.5113093   7.0089613
  53.6037923  62.0175743   6.3779783  53.6659863  62.6463453   7.7537183
  53.2590163  62.5952963  10.5309163  52.3092873  62.5616503  10.6454153
  53.4403173  63.5053073  10.2958933  52.5700413  61.7686443   2.9482023
  53.0659533  61.5357313   3.7330903  52.3716483  60.9298283   2.5319663
  38.4500953  56.1500163   8.5833063  39.0977143  55.5997543   8.1428223
  38.8702793  56.4043313   9.4048873  53.9987573  60.4047393   5.4819703
  53.8886853  60.2503433   6.4201973  54.7595163  59.8768333   5.2395113
  52.3453293  56.3441523  11.9402703  52.9825513  56.9575663  12.3061893
  52.4928183  56.3802183  10.9951933  38.2032953  56.3055833  11.3258383
  37.8547773  56.7619653  12.0916563  37.8720653  55.4112963  11.4080813
  39.8097323  69.4775433  15.4911573  39.7666953  69.1068343  16.3726033
  39.9408333  70.4153003  15.6313393  43.5103353  71.0335023  11.0921293
  43.2694713  71.3009583  10.2051813  44.4505993  71.2040753  11.1472153
  45.7157773  57.4967713  14.8477803  45.6546663  58.0889543  15.5973213
  46.6558153  57.3893673  14.7028063  48.3532333  57.1537773  14.4870093
  48.9672743  57.4717063  13.8251173  48.8981893  56.6686363  15.1065953
  38.8753593  55.8332033  14.6009153  39.4236583  55.6520083  13.8375263
  38.9408903  55.0426143  15.1365463  49.0940373  55.7169913  10.8139383
  48.2200213  56.0505023  10.6112313  48.9851123  55.2443093  11.6391253
  50.0012353  57.9240783  12.1981103  49.6725713  57.1092543  11.8182833
  50.9494653  57.8810593  12.0746793  39.2797583  69.7896063  11.5617393
  38.5531643  69.1701353  11.4943343  39.3406733  70.1836673  10.6915473
  46.8415193  56.6339753   9.7532293  46.0586983  57.1085253  10.0329053
  46.5478123  55.7294583   9.6445473  51.3936263  57.3362853   7.7981383
  51.8344353  57.2807953   6.9502983  51.1243853  58.2520863   7.8691563
  53.2574833  56.9678093   5.8090203  53.1963233  56.0239313   5.6621223
  54.0366863  57.0758183   6.3543663  44.7269413  59.0526503   5.2648323
  43.9143923  58.6783393   4.9244203  45.2311053  58.2971583   5.5669513
  49.2294393  55.7168953   6.5031393  49.8323763  56.2889163   6.9779913
  48.4887383  56.2808393   6.2805293  52.3728993  56.1190513   1.7771673
  52.5679623  57.0173963   2.0439103  51.5858863  55.8877593   2.2704623
  42.7518593  57.2026423   3.8693373  42.1221333  56.5013733   4.0363503
  42.2123733  57.9630553   3.6526533  42.8774153  56.4810403  16.3045863
  42.5958423  56.9844003  15.5406683  43.2593853  55.6832153  15.9387993
  49.4789613  55.8963983  16.8826333  49.3655063  56.2158593  17.7777853
  50.2959353  56.2976493  16.5863613  48.3847763  45.1412963  62.3435033
  48.3041813  44.2267573  62.0726743  47.9712183  45.6380033  61.6374743
  46.5165803  46.9191983  64.2244303  45.7407903  46.4392423  64.5142873
  47.1678733  46.2397633  64.0500463  40.5331633  47.2311793  65.1020063
  39.7016513  46.9760503  65.5016573  41.1412613  47.3022563  65.8377983
  50.5373233  51.3252173  63.0043433  50.0754763  50.5539413  63.3330603
  51.3498783  51.3518243  63.5095883  40.5132893  51.2651883  65.2978083
  40.8160933  50.3749623  65.1188303  41.2576483  51.8222103  65.0700333
  38.9423583  42.1913683  58.8862453  38.0540283  42.5329653  58.7842333
  39.2264773  41.9914003  57.9943283  36.9056593  44.7919333  64.7702153
  37.4772703  44.0241533  64.7705793  36.9058133  45.0908093  63.8608763
  46.7636543  53.6110183  62.6247423  46.1447983  54.0667683  62.0541863
  47.6188323  53.7661643  62.2237123  45.9574793  49.5949173  64.2314463
  45.8883073  48.6539113  64.0703593  46.7194653  49.6850583  64.8037033
  38.1481463  40.2003693  66.5571083  37.9684303  39.3029443  66.8373843
  37.7461543  40.7475563  67.2318033  46.9879963  42.4019553  64.4583393
  47.3644783  41.5291433  64.3457063  46.8899473  42.7378253  63.5673833
  41.1184973  40.7745183  59.9200833  41.2251723  41.6748913  60.2269593
  40.2077333  40.7263153  59.6295483  50.7704083  39.8969993  61.3911733
  51.5913703  39.4066563  61.4337213  50.8038163  40.4867653  62.1443573
  38.7668133  42.6964193  65.1653423  39.4478243  42.9602563  65.7840823
  38.4516183  41.8565063  65.4991433  42.9592703  43.7431553  64.2526013
  43.4670923  44.2412523  64.8931033  43.4905943  42.9666753  64.0765373
  55.0603633  41.9136743  67.9555363  54.3555803  42.3018453  67.4370473
  55.3261553  42.6087033  68.5576293  41.2428803  38.3830113  68.5189433
  41.2447243  38.9002503  67.7135333  40.4133113  37.9060293  68.4959363
  47.6299893  48.4949423  60.0179333  47.0117163  48.9598873  59.4542053
  48.1423143  49.1876903  60.4348843  42.4931653  48.0225293  66.6962933
  42.1601033  48.6494213  67.3384003  42.6698333  48.5487173  65.9164603
  51.0065563  41.8370373  64.1639273  50.3021133  42.1255263  64.7442383
  51.3677723  42.6470483  63.8038833  40.9244133  40.0940073  66.5259883
  41.2660943  40.9382123  66.2313753  39.9859943  40.2423813  66.6425223
  41.7050753  49.9906093  68.5112113  42.3224753  50.6657173  68.2296563
  40.8443873  50.3994073  68.4199613  36.9983093  49.1805953  57.3918963
  36.6211073  49.6693053  56.6603863  37.2556163  49.8531233  58.0225493
  52.6228343  51.4545503  66.4266753  51.9391863  52.1244613  66.4183423
  53.1622633  51.6526153  65.6611613  54.0752483  41.2825163  64.5548483
  53.1277393  41.3164143  64.6863913  54.4002473  42.0964113  64.9397843
  44.6072023  37.5822343  62.8504473  44.9147003  37.0269233  62.1339973
  43.6772723  37.7166803  62.6677463  50.1587083  53.2989633  65.1411933
  50.1714243  52.8951923  64.2734193  49.6062303  54.0736923  65.0373363
  51.4532503  50.0205853  60.2302103  51.3428833  49.0780183  60.3551523
  51.4500753  50.3821493  61.1164863  49.5572523  48.2019473  66.4694543
  49.9741313  47.9879583  65.6348003  50.2812343  48.4592263  67.0403163
  46.9952783  45.6471173  59.5864593  46.0682063  45.5808553  59.8153063
  47.1477603  46.5851303  59.4719833  46.9821863  41.9188173  56.5831753
  46.0425533  42.0802133  56.6684213  47.3005123  42.6373853  56.0367743
  53.5034623  46.6006693  66.5610783  52.6753253  46.6699783  66.0860913
  54.0985103  47.1861003  66.0926613  51.0250073  47.2091473  60.0899843
  50.4062493  46.8711023  59.4426143  51.0074523  46.5651233  60.7979033
  50.4676633  43.3876013  67.5065653  50.0547813  44.2129723  67.7605643
  49.7352583  42.8021053  67.3142013  42.6009423  46.1735913  62.3684323
  42.1966423  45.4613163  61.8730223  42.6872543  45.8289153  63.2572363
  43.0691123  49.8603473  64.5323533  42.7719413  49.2548943  63.8531313
  44.0190943  49.8980783  64.4212893  41.3138043  42.9479123  66.1483363
  41.8652633  43.0574463  65.3736613  41.8281553  43.3216723  66.8638593
  51.1576733  53.4335343  68.1946633  50.6807293  54.2407533  68.0019243
  50.4738523  52.7813673  68.3472843  49.2014773  46.4478283  57.0972593
  49.6408053  45.6100713  56.9510413  49.9143193  47.0807683  57.1836733
  47.3110153  51.3874353  61.0653833  47.7506063  52.1298683  60.6509223
  47.2497043  51.6300923  61.9892793  52.7831913  37.7021093  55.4113633
  52.4704573  37.7947923  56.3112703  53.5444383  38.2802123  55.3611063
  39.3014053  45.0680893  59.8690973  39.1811653  45.7942983  59.2572243
  38.9914943  44.2983803  59.3918883  36.9399423  48.2396033  65.6759613
  37.0179843  48.3744803  64.7315333  37.5541103  47.5311923  65.8687733
  38.1847053  49.9396223  62.0865793  37.7775133  50.0810813  61.2319393
  39.0760063  49.6556383  61.8837003  48.0025933  54.0888133  68.9932843
  48.5170603  53.9996143  69.7955273  47.1595013  54.4347833  69.2860753
  49.9780333  54.3743473  58.4216843  49.8181473  54.0846413  59.3198673
  49.8127043  53.5983603  57.8862073  42.4568713  54.1542003  60.1988463
  42.2811193  53.2377543  59.9856263  41.6024453  54.5129293  60.4386263
  49.6806463  51.8831033  56.9814843  48.9871623  51.8808323  56.3217123
  50.4229323  51.4590353  56.5509013  49.2456393  53.5093743  61.0563333
  49.7013343  52.7283123  61.3701953  49.5848913  54.2200563  61.6004513
  36.9958943  49.2810203  68.2154073  37.1589983  48.8115563  67.3973443
  37.4611393  48.7733763  68.8802913  41.7677713  38.4115963  63.2514643
  41.3245863  39.1925503  62.9199163  42.3262703  38.7345853  63.9585583
  46.0547523  41.2784483  68.8549963  45.5926893  41.4867503  69.6669903
  45.6525633  40.4643833  68.5520633  44.8836533  38.0326663  58.1320473
  44.2590713  38.0286533  58.8573783  44.7966653  37.1657623  57.7356443
  43.8053613  38.9563293  65.1104243  44.1025943  39.8626123  65.0296263
  44.3539173  38.4682073  64.4963813  41.5591933  43.5349533  60.9795893
  41.3332853  43.3186703  61.8842513  40.7784463  43.9677993  60.6341863
  48.7889693  43.5412903  59.5786543  48.1898583  44.2648703  59.3950163
  49.3369303  43.4789683  58.7962993  47.3954563  42.1776443  61.6089823
  47.7884133  42.4948643  60.7958513  47.7571413  41.2988323  61.7234343
  36.4318733  38.7677243  63.8320023  36.1431783  39.3380103  64.5445003
  37.1764493  38.2881693  64.1951253  36.6188963  42.7097363  55.0422743
  36.5363633  43.6528123  55.1837733  36.2672023  42.5672273  54.1635093
  47.9809703  44.7682193  65.7040603  47.2490823  45.2769003  66.0530703
  47.5834043  43.9512173  65.4029383  44.4187093  41.4436393  64.1093093
  44.4223153  41.0026343  63.2597633  45.3138213  41.7653723  64.2164913
  40.2689473  41.3262883  63.0687303  39.9289523  41.8038113  63.8254353
  39.5066793  40.8728003  62.7088403  44.4807243  42.4448473  57.0999853
  44.6020063  42.4034953  58.0485673  44.0955753  43.3072623  56.9446583
  48.4435613  40.2215873  65.1163543  48.4608353  40.6724523  65.9605393
  48.1951193  39.3221513  65.3296983  43.4928743  44.7549613  56.4983153
  42.9245643  44.3067863  55.8719063  44.2017743  45.1142393  55.9648303
  44.7195063  45.5038173  65.8558503  45.0865193  45.0296743  66.6019843
  44.5300123  46.3779743  66.1966843  37.5835553  40.2481863  61.9851973
  37.2982473  39.8837533  62.8230593  37.5214413  39.5162323  61.3715113
  42.5094433  44.5446813  68.1742713  42.2051503  45.4238793  68.3993073
  43.4640893  44.6046603  68.2100153  41.0376223  48.7507803  58.7709563
  40.2638483  48.2105423  58.6108283  41.7670853  48.2314413  58.4327323
  51.7964203  47.7473163  64.5635953  52.5163323  48.2428453  64.1732063
  51.5946023  47.0691053  63.9189823  47.2574143  39.1411123  58.7065343
  46.4438753  38.6424293  58.6310653  47.0636093  39.9809373  58.2901693
  49.9722533  43.5130773  57.0027503  50.8602153  43.8248003  56.8278843
  49.9427623  42.6403023  56.6108083  41.0813623  48.4188183  62.4088373
  41.5992293  47.6156443  62.3545263  40.6297643  48.3567323  63.2505203
  45.9683123  49.6854463  57.6815673  46.3098823  50.4296693  57.1858993
  45.1395833  49.9985583  58.0440503  52.2436803  44.8242613  56.4707363
  52.1600523  45.2556833  55.6203803  52.9630993  45.2840963  56.9034183
  53.3210943  47.2810133  69.5477333  52.5959133  47.8738913  69.3506723
  53.8486403  47.2733673  68.7490703  53.2724053  51.6784873  59.1989493
  52.6300213  51.0240493  59.4733213  52.8854713  52.0839963  58.4230163
  48.8510533  49.0070303  63.0461183  49.2034353  48.4098433  62.3862553
  47.9672863  48.6814533  63.2169433  44.9373813  49.7667993  60.4531593
  45.6244943  50.3137203  60.8339183  44.1506233  50.3108723  60.4881203
  37.0766213  45.3840813  55.9448673  37.9461063  45.6665613  56.2284593
  36.5856533  46.1976683  55.8297483  44.2401023  46.7714023  60.0656953
  44.6963803  47.5819273  60.2917143  43.8889233  46.4537163  60.8975443
  46.5433633  52.2820363  67.2949253  47.1875853  52.4879743  67.9722673
  46.9063073  51.5208763  66.8420103  40.1412803  37.1151673  60.5379473
  40.0127433  37.1069573  61.4864393  39.3174823  37.4534763  60.1870483
  47.8165713  50.2852713  66.0126703  48.4587943  49.5845873  66.1258873
  48.3415063  51.0651153  65.8323593  51.6621433  50.5701333  55.7365843
  51.4359013  49.8531773  56.3290483  51.2717633  50.3213773  54.8987593
  37.4437463  54.5968193  56.5110303  37.8035103  55.1957533  55.8567573
  37.3029803  55.1428083  57.2845333  51.2437683  48.4873273  57.3980003
  50.9559383  48.9485963  58.1857883  52.0389853  48.0271043  57.6664223
  43.4606083  51.9799393  57.3283973  43.4516183  52.7129083  56.7128483
  42.5404443  51.7330973  57.4210933  39.0612723  47.2014283  58.0730733
  38.4540673  47.9413183  58.0826033  39.5362073  47.2913643  57.2468933
  48.6345513  41.3665103  67.7487623  49.0026333  40.5460313  68.0767193
  47.7743713  41.4266993  68.1643273  52.0007543  40.3222043  58.5575183
  51.3720703  40.4267713  57.8433413  51.5059463  40.5418823  59.3469063
  46.4465683  52.0427633  55.9909163  46.5477663  51.8391623  55.0611143
  45.5467423  51.7885913  56.1956943  43.9691573  42.6007993  59.9733063
  43.2607723  43.0694333  60.4146673  44.2536053  41.9430003  60.6078253
  45.5947503  44.0204693  67.9725593  46.0932753  44.4950513  68.6377443
  45.7370453  43.0968213  68.1795623  48.0007003  39.3258653  61.4128853
  47.8774783  39.3444783  60.4638363  48.9491563  39.3737593  61.5327253
  45.0883793  54.5613953  60.6856833  45.3425293  54.5235343  59.7636203
  44.1396273  54.4347283  60.6785083  42.1726593  40.9093073  57.3483773
  43.0217123  41.3463223  57.2823963  41.8057863  41.2213333  58.1755833
  52.8014363  40.2372653  68.8153983  52.2987963  40.9778053  69.1547793
  53.6171023  40.6256653  68.4990773  51.0936373  45.4805833  62.2615343
  50.1526513  45.4956063  62.4363033  51.4080443  44.6941793  62.7075643
  41.0718013  47.1625433  55.8219303  41.8381283  47.0506793  56.3844733
  41.1492703  46.4663403  55.1696073  39.7664773  44.5950503  56.5052193
  39.8468363  43.6478013  56.6169593  40.6584523  44.9257383  56.6112853
  53.0961953  52.6514683  63.9369603  53.2209373  53.4745853  64.4093413
  53.9627513  52.4405413  63.5893753  40.5679483  54.7445893  63.6086733
  41.3041963  54.1961353  63.8795303  40.9520403  55.6101903  63.4692723
  37.4524963  50.8119463  59.4828243  36.5264743  51.0540603  59.4733653
  37.9181393  51.6393723  59.3612993  43.6781793  53.9176203  55.4312303
  44.4710403  54.2065033  54.9794093  43.1586143  53.4868373  54.7524783
  52.7311963  53.1446333  56.8549043  52.4453473  52.7311473  56.0403223
  52.5331513  54.0734043  56.7349563  44.1959193  49.1379613  55.2954653
  44.0909833  48.5231963  56.0216033  44.0283413  48.6145503  54.5117663
  47.4361923  48.1999643  55.8996643  46.8872023  48.6468943  56.5439383
  48.0581183  47.6948893  56.4234313  43.1037043  47.1590563  57.7961943
  43.5253463  46.9930433  58.6393333  43.2287883  46.3490793  57.3017083
  45.6164683  46.1828173  55.0439043  46.1370343  45.4677193  54.6780193
  46.2633083  46.8214043  55.3439553  44.5198203  38.6622723  67.7157603
  44.0715503  38.6846983  66.8703153  43.8863403  38.2641743  68.3127903
  44.9257753  47.5577053  68.3370043  45.3445863  48.4009783  68.1646283
  44.0066383  47.6949093  68.1076823  49.6009553  45.8430423  68.2970393
  49.0744773  46.3673043  67.6935533  49.9440893  46.4757813  68.9280123
  41.9995943  43.2323793  54.7420103  41.7985003  42.3691153  55.1033443
  41.8287993  43.1457153  53.8041703  42.7765173  53.8630063  69.4527773
  42.2386263  54.5876123  69.1336473  43.0299133  53.3860403  68.6625113
  49.4784253  38.0432023  57.2706983  49.7586543  37.1999923  57.6266403
  48.7049983  38.2755133  57.7845733  40.7978743  40.3324413  54.7297983
  41.1004643  40.3391843  53.8217133  41.5373333  39.9822273  55.2265643
  44.0163673  39.2759033  55.7154183  43.6685673  38.5983023  55.1356633
  44.2176443  38.8148543  56.5297573  46.1812713  54.2639783  57.3340783
  47.0763503  54.6024753  57.3559543  46.2130343  53.5419193  56.7065063
  39.8208873  49.6366833  55.5627783  40.2583743  50.1796503  56.2185363
  40.3056603  48.8113783  55.5724123  37.0354673  52.4255863  63.0148043
  37.3657683  51.5576923  62.7826683  37.4645673  52.6314383  63.8453003
  41.6316593  50.7564873  60.6750013  41.3312133  50.6329843  61.5753923
  41.5254083  49.8973463  60.2665743  37.5244883  53.2926453  65.7529673
  37.0875873  53.4727253  66.5853823  38.0922563  54.0501073  65.6111393
  54.4008513  50.5361273  55.3776693  53.5701473  50.6037923  55.8483923
  54.5780343  51.4265393  55.0743553  53.8564973  47.2808753  57.8810893
  54.6183883  47.8505403  57.9870583  53.8719343  46.7135953  58.6519203
  37.3569313  45.8046683  62.1118553  36.7018153  45.5358323  61.4678253
  38.1947263  45.6951163  61.6620533  54.8624943  48.1358853  62.7252823
  55.2333773  47.3526173  62.3188793  55.5026873  48.8247953  62.5470123
  51.8458703  49.5195433  68.1383143  51.0318543  49.9492593  68.4008933
  52.2532903  50.1313843  67.5252193  53.9084143  47.5743123  55.0383413
  54.1832983  48.4822003  54.9102633  53.7194883  47.5105653  55.9745403
  50.3059753  40.5987973  56.3337043  50.7244633  40.4118953  55.4933703
  49.9995813  39.7467023  56.6439973  53.8049483  45.5112113  60.0312843
  53.4293083  44.7440043  59.5994133  53.0752603  45.8934813  60.5187773
  38.3945243  46.1899253  66.6521893  38.7618283  46.1026653  67.5317913
  37.8256063  45.4265803  66.5528753  53.1949103  44.6583633  69.6652363
  52.9635193  44.4296383  68.7650313  53.4553653  45.5783183  69.6197253
  36.5707393  43.0145613  58.0543883  35.6671473  43.2775813  57.8795543
  37.0548013  43.2856783  57.2743843  53.0800443  43.7369603  63.3320083
  53.6037923  43.2432253  62.7010253  53.6659863  43.8719963  64.0767653
  53.2590163  43.8209473  66.8539633  52.3092873  43.7873013  66.9684623
  53.4403173  44.7309583  66.6189403  39.1134603  42.0711153  55.9638263
  39.8226303  41.6494373  55.4785543  38.3974543  42.1386383  55.3321613
  38.7608763  38.1250483  55.0040913  39.4836893  38.6659423  55.3222133
  39.0333283  37.8513903  54.1282453  52.5700413  42.9942953  59.2712493
  53.0659533  42.7613823  60.0561373  52.3716483  42.1554793  58.8550133
  38.4500953  37.3756673  64.9063533  39.0977143  36.8254053  64.4658693
  38.8702793  37.6299823  65.7279343  53.9987573  41.6303903  61.8050173
  53.8886853  41.4759943  62.7432443  54.7595163  41.1024843  61.5625583
  52.3453293  37.5698033  68.2633173  52.9825513  38.1832173  68.6292363
  52.4928183  37.6058693  67.3182403  54.8877843  39.4611823  55.0456313
  55.8127153  39.3293003  54.8374603  54.8653633  39.5404643  55.9992763
  54.9616333  40.2322483  57.6713023  54.1667833  40.1667603  58.2005933
  55.1659613  41.1673123  57.6598373  51.9034753  54.2714033  61.6651413
  52.4993823  53.9498603  60.9885833  52.1612903  53.7985853  62.4564683
  38.2032953  37.5312343  67.6488853  37.8547773  37.9876163  68.4147033
  37.8720653  36.6369473  67.7311283  43.5103353  52.2591533  67.4151763
  43.2694713  52.5266093  66.5282283  44.4505993  52.4297263  67.4702623
  54.7707513  54.2785913  68.2162403  54.2765793  54.6754783  67.4989533
  54.1620803  53.6535123  68.6099683  39.6485353  53.6494193  68.9339823
  39.0545673  53.5178893  69.6729863  39.6409193  52.8132333  68.4681923
  49.0940373  36.9426423  67.1369853  48.2200213  37.2761533  66.9342783
  48.9851123  36.4699603  67.9621723  50.0012353  39.1497293  68.5211573
  49.6725713  38.3349053  68.1413303  50.9494653  39.1067103  68.3977263
  52.4546963  54.9209333  65.4949143  51.9949933  55.6725143  65.1207163
  51.8259423  54.2015803  65.4363943  39.2797583  51.0152573  67.8847863
  38.5531643  50.3957863  67.8173813  39.3406733  51.4093183  67.0145943
  42.8842683  53.2297573  64.6697273  43.4007703  52.6184933  64.1445533
  43.5340063  53.7326353  65.1608283  45.6238183  54.1206063  65.4966253
  45.9115993  53.8660363  64.6199263  46.1361403  53.5683423  66.0871823
  46.8415193  37.8596263  66.0762763  46.0586983  38.3341763  66.3559523
  46.5478123  36.9551093  65.9675943  51.3936263  38.5619363  64.1211853
  51.8344353  38.5064463  63.2733453  51.1243853  39.4777373  64.1922033
  53.2574833  38.1934603  62.1320673  53.1963233  37.2495823  61.9851693
  54.0366863  38.3014693  62.6774133  37.5627583  54.3326963  61.0944623
  37.3949623  53.6997643  61.7926513  36.6962093  54.5386363  60.7438813
  38.1855603  38.1643743  58.5976483  38.9434963  38.2772623  58.0240513
  37.7232773  39.0012943  58.5519913  44.7269413  40.2783013  61.5878793
  43.9143923  39.9039903  61.2474673  45.2311053  39.5228093  61.8899983
  49.2294393  36.9425463  62.8261863  49.8323763  37.5145673  63.3010383
  48.4887383  37.5064903  62.6035763  52.3728993  37.3447023  58.1002143
  52.5679623  38.2430473  58.3669573  51.5858863  37.1134103  58.5935093
  39.1690283  53.0260193  58.5394763  38.6437903  53.4068223  57.8356723
  39.0934863  53.6510963  59.2604473  40.5580753  38.6907793  57.1378453
  41.0873513  37.9037593  57.0086403  41.1909073  39.3698983  57.3713983
  42.7518593  38.4282933  60.1923843  42.1221333  37.7270243  60.3593973
  42.2123733  39.1887063  59.9757003  53.9255603  54.5847733  59.8608703
  54.1007793  53.8985473  59.2169623  53.2277173  55.1094783  59.4685373
  41.7683253  54.9742573  57.4144013  42.5002073  54.6901853  56.8667903
  42.0276923  54.7355853  58.3043393  40.9298043  51.0907303  57.4190343
  40.3006923  51.5592403  57.9676173  41.0445873  50.2456523  57.8536533
  48.3847763  45.1412963  43.5691543  48.3041813  44.2267573  43.2983253
  47.9712183  45.6380033  42.8631253  46.5165803  46.9191983  45.4500813
  45.7407903  46.4392423  45.7399383  47.1678733  46.2397633  45.2756973
  40.5331633  47.2311793  46.3276573  39.7016513  46.9760503  46.7273083
  41.1412613  47.3022563  47.0634493  50.5373233  51.3252173  44.2299943
  50.0754763  50.5539413  44.5587113  51.3498783  51.3518243  44.7352393
  40.5132893  51.2651883  46.5234593  40.8160933  50.3749623  46.3444813
  41.2576483  51.8222103  46.2956843  38.9423583  42.1913683  40.1118963
  38.0540283  42.5329653  40.0098843  39.2264773  41.9914003  39.2199793
  36.9056593  44.7919333  45.9958663  37.4772703  44.0241533  45.9962303
  36.9058133  45.0908093  45.0865273  46.7636543  53.6110183  43.8503933
  46.1447983  54.0667683  43.2798373  47.6188323  53.7661643  43.4493633
  45.9574793  49.5949173  45.4570973  45.8883073  48.6539113  45.2960103
  46.7194653  49.6850583  46.0293543  38.1481463  40.2003693  47.7827593
  37.9684303  39.3029443  48.0630353  37.7461543  40.7475563  48.4574543
  46.9879963  42.4019553  45.6839903  47.3644783  41.5291433  45.5713573
  46.8899473  42.7378253  44.7930343  41.1184973  40.7745183  41.1457343
  41.2251723  41.6748913  41.4526103  40.2077333  40.7263153  40.8551993
  50.7704083  39.8969993  42.6168243  51.5913703  39.4066563  42.6593723
  50.8038163  40.4867653  43.3700083  38.7668133  42.6964193  46.3909933
  39.4478243  42.9602563  47.0097333  38.4516183  41.8565063  46.7247943
  42.9592703  43.7431553  45.4782523  43.4670923  44.2412523  46.1187543
  43.4905943  42.9666753  45.3021883  55.0603633  41.9136743  49.1811873
  54.3555803  42.3018453  48.6626983  55.3261553  42.6087033  49.7832803
  41.2428803  38.3830113  49.7445943  41.2447243  38.9002503  48.9391843
  40.4133113  37.9060293  49.7215873  47.6299893  48.4949423  41.2435843
  47.0117163  48.9598873  40.6798563  48.1423143  49.1876903  41.6605353
  42.4931653  48.0225293  47.9219443  42.1601033  48.6494213  48.5640513
  42.6698333  48.5487173  47.1421113  51.0065563  41.8370373  45.3895783
  50.3021133  42.1255263  45.9698893  51.3677723  42.6470483  45.0295343
  40.9244133  40.0940073  47.7516393  41.2660943  40.9382123  47.4570263
  39.9859943  40.2423813  47.8681733  41.7050753  49.9906093  49.7368623
  42.3224753  50.6657173  49.4553073  40.8443873  50.3994073  49.6456123
  36.9983093  49.1805953  38.6175473  36.6211073  49.6693053  37.8860373
  37.2556163  49.8531233  39.2482003  52.6228343  51.4545503  47.6523263
  51.9391863  52.1244613  47.6439933  53.1622633  51.6526153  46.8868123
  54.0752483  41.2825163  45.7804993  53.1277393  41.3164143  45.9120423
  54.4002473  42.0964113  46.1654353  44.6072023  37.5822343  44.0760983
  44.9147003  37.0269233  43.3596483  43.6772723  37.7166803  43.8933973
  50.1587083  53.2989633  46.3668443  50.1714243  52.8951923  45.4990703
  49.6062303  54.0736923  46.2629873  51.4532503  50.0205853  41.4558613
  51.3428833  49.0780183  41.5808033  51.4500753  50.3821493  42.3421373
  49.5572523  48.2019473  47.6951053  49.9741313  47.9879583  46.8604513
  50.2812343  48.4592263  48.2659673  46.9952783  45.6471173  40.8121103
  46.0682063  45.5808553  41.0409573  47.1477603  46.5851303  40.6976343
  46.9821863  41.9188173  37.8088263  46.0425533  42.0802133  37.8940723
  47.3005123  42.6373853  37.2624253  53.5034623  46.6006693  47.7867293
  52.6753253  46.6699783  47.3117423  54.0985103  47.1861003  47.3183123
  51.0250073  47.2091473  41.3156353  50.4062493  46.8711023  40.6682653
  51.0074523  46.5651233  42.0235543  50.4676633  43.3876013  48.7322163
  50.0547813  44.2129723  48.9862153  49.7352583  42.8021053  48.5398523
  42.6009423  46.1735913  43.5940833  42.1966423  45.4613163  43.0986733
  42.6872543  45.8289153  44.4828873  43.0691123  49.8603473  45.7580043
  42.7719413  49.2548943  45.0787823  44.0190943  49.8980783  45.6469403
  41.3138043  42.9479123  47.3739873  41.8652633  43.0574463  46.5993123
  41.8281553  43.3216723  48.0895103  51.1576733  53.4335343  49.4203143
  50.6807293  54.2407533  49.2275753  50.4738523  52.7813673  49.5729353
  42.1609553  49.5985163  52.4087843  41.2638083  49.8225133  52.6561243
  42.1862423  49.7220103  51.4599243  49.2014773  46.4478283  38.3229103
  49.6408053  45.6100713  38.1766923  49.9143193  47.0807683  38.4093243
  40.9880773  46.4698483  50.9845213  40.8488543  47.3421283  51.3532613
  40.1062133  46.1271293  50.8393153  47.3110153  51.3874353  42.2910343
  47.7506063  52.1298683  41.8765733  47.2497043  51.6300923  43.2149303
  42.7861123  52.4120183  53.1930363  42.7576553  52.8163133  52.3258793
  42.6226093  51.4830543  53.0301963  52.7831913  37.7021093  36.6370143
  52.4704573  37.7947923  37.5369213  53.5444383  38.2802123  36.5867573
  39.3014053  45.0680893  41.0947483  39.1811653  45.7942983  40.4828753
  38.9914943  44.2983803  40.6175393  54.7375943  53.1947283  54.4894533
  55.2135663  53.6730173  55.1683613  55.3583103  53.1264773  53.7640033
  36.9399423  48.2396033  46.9016123  37.0179843  48.3744803  45.9571843
  37.5541103  47.5311923  47.0944243  38.1847053  49.9396223  43.3122303
  37.7775133  50.0810813  42.4575903  39.0760063  49.6556383  43.1093513
  54.1409193  50.3860133  51.6494543  54.2672253  50.1472013  50.7311723
  54.1830573  49.5544673  52.1216623  48.0025933  54.0888133  50.2189353
  48.5170603  53.9996143  51.0211783  47.1595013  54.4347833  50.5117263
  49.9780333  54.3743473  39.6473353  49.8181473  54.0846413  40.5455183
  49.8127043  53.5983603  39.1118583  42.4568713  54.1542003  41.4244973
  42.2811193  53.2377543  41.2112773  41.6024453  54.5129293  41.6642773
  49.6806463  51.8831033  38.2071353  48.9871623  51.8808323  37.5473633
  50.4229323  51.4590353  37.7765523  49.2456393  53.5093743  42.2819843
  49.7013343  52.7283123  42.5958463  49.5848913  54.2200563  42.8261023
  53.9933203  42.4392593  52.6144283  53.3777473  42.9472263  52.0859743
  53.6729623  41.5390923  52.5570223  36.9958943  49.2810203  49.4410583
  37.1589983  48.8115563  48.6229953  37.4611393  48.7733763  50.1059423
  41.7677713  38.4115963  44.4771153  41.3245863  39.1925503  44.1455673
  42.3262703  38.7345853  45.1842093  46.0547523  41.2784483  50.0806473
  45.5926893  41.4867503  50.8926413  45.6525633  40.4643833  49.7777143
  51.0552033  42.4993433  51.2103133  50.2045623  42.1999183  51.5312203
  50.8953823  42.7435443  50.2986953  48.1501743  43.9995183  53.3101923
  48.4755153  43.1658933  52.9704153  48.9382073  44.5223703  53.4580253
  44.8836533  38.0326663  39.3576983  44.2590713  38.0286533  40.0830293
  44.7966653  37.1657623  38.9612953  43.8053613  38.9563293  46.3360753
  44.1025943  39.8626123  46.2552773  44.3539173  38.4682073  45.7220323
  41.5591933  43.5349533  42.2052403  41.3332853  43.3186703  43.1099023
  40.7784463  43.9677993  41.8598373  48.7889693  43.5412903  40.8043053
  48.1898583  44.2648703  40.6206673  49.3369303  43.4789683  40.0219503
  43.9991143  44.4335113  52.8712673  43.9034743  43.4929843  52.7213073
  44.8423123  44.6550183  52.4760743  47.3954563  42.1776443  42.8346333
  47.7884133  42.4948643  42.0215023  47.7571413  41.2988323  42.9490853
  39.1301683  40.8448783  51.0246453  38.7365073  41.6923993  51.2319233
  38.4420083  40.2075153  51.2155093  45.7046733  40.9283753  54.0943193
  45.0145053  40.7355953  54.7289283  46.4479033  41.2118393  54.6267493
  36.4318733  38.7677243  45.0576533  36.1431783  39.3380103  45.7701513
  37.1764493  38.2881693  45.4207763  36.6188963  42.7097363  36.2679253
  36.5363633  43.6528123  36.4094243  36.2672023  42.5672273  35.3891603
  47.9809703  44.7682193  46.9297113  47.2490823  45.2769003  47.2787213
  47.5834043  43.9512173  46.6285893  44.4187093  41.4436393  45.3349603
  44.4223153  41.0026343  44.4854143  45.3138213  41.7653723  45.4421423
  40.2689473  41.3262883  44.2943813  39.9289523  41.8038113  45.0510863
  39.5066793  40.8728003  43.9344913  44.4807243  42.4448473  38.3256363
  44.6020063  42.4034953  39.2742183  44.0955753  43.3072623  38.1703093
  48.4435613  40.2215873  46.3420053  48.4608353  40.6724523  47.1861903
  48.1951193  39.3221513  46.5553493  43.4928743  44.7549613  37.7239663
  42.9245643  44.3067863  37.0975573  44.2017743  45.1142393  37.1904813
  51.8706363  37.6348053  52.1806433  52.1952133  36.9037713  52.7064413
  51.9062873  37.3161693  51.2787423  38.5697923  48.6561633  51.6006393
  38.1852713  48.0155303  52.1989353  38.8810113  49.3597753  52.1701123
  44.7195063  45.5038173  47.0815013  45.0865193  45.0296743  47.8276353
  44.5300123  46.3779743  47.4223353  37.5835553  40.2481863  43.2108483
  37.2982473  39.8837533  44.0487103  37.5214413  39.5162323  42.5971623
  42.5094433  44.5446813  49.3999223  42.2051503  45.4238793  49.6249583
  43.4640893  44.6046603  49.4356663  41.0376223  48.7507803  39.9966073
  40.2638483  48.2105423  39.8364793  41.7670853  48.2314413  39.6583833
  51.7964203  47.7473163  45.7892463  52.5163323  48.2428453  45.3988573
  51.5946023  47.0691053  45.1446333  47.2574143  39.1411123  39.9321853
  46.4438753  38.6424293  39.8567163  47.0636093  39.9809373  39.5158203
  47.1783003  47.8182223  51.6761463  47.1120313  46.8977893  51.4219053
  46.5488143  47.9157663  52.3906103  49.9722533  43.5130773  38.2284013
  50.8602153  43.8248003  38.0535353  49.9427623  42.6403023  37.8364593
  41.0813623  48.4188183  43.6344883  41.5992293  47.6156443  43.5801773
  40.6297643  48.3567323  44.4761713  45.9683123  49.6854463  38.9072183
  46.3098823  50.4296693  38.4115503  45.1395833  49.9985583  39.2697013
  38.5658163  45.3849553  50.5470583  38.2073103  46.0503403  51.1343923
  38.2712723  44.5533103  50.9183203  41.7671283  45.8433793  53.4310133
  41.4671423  45.9890973  52.5337953  42.5382523  45.2839083  53.3383523
  47.1099733  50.6402793  51.4265263  47.1244273  49.7083753  51.2084173
  46.4024833  50.7262553  52.0655033  52.2436803  44.8242613  37.6963873
  52.1600523  45.2556833  36.8460313  52.9630993  45.2840963  38.1290693
  53.3210943  47.2810133  50.7733843  52.5959133  47.8738913  50.5763233
  53.8486403  47.2733673  49.9747213  53.2724053  51.6784873  40.4246003
  52.6300213  51.0240493  40.6989723  52.8854713  52.0839963  39.6486673
  48.8510533  49.0070303  44.2717693  49.2034353  48.4098433  43.6119063
  47.9672863  48.6814533  44.4425943  44.9373813  49.7667993  41.6788103
  45.6244943  50.3137203  42.0595693  44.1506233  50.3108723  41.7137713
  37.0766213  45.3840813  37.1705183  37.9461063  45.6665613  37.4541103
  36.5856533  46.1976683  37.0553993  44.2401023  46.7714023  41.2913463
  44.6963803  47.5819273  41.5173653  43.8889233  46.4537163  42.1231953
  46.5433633  52.2820363  48.5205763  47.1875853  52.4879743  49.1979183
  46.9063073  51.5208763  48.0676613  40.1412803  37.1151673  41.7635983
  40.0127433  37.1069573  42.7120903  39.3174823  37.4534763  41.4126993
  47.8165713  50.2852713  47.2383213  48.4587943  49.5845873  47.3515383
  48.3415063  51.0651153  47.0580103  51.6621433  50.5701333  36.9622353
  51.4359013  49.8531773  37.5546993  51.2717633  50.3213773  36.1244103
  49.5903333  51.0847613  50.4419273  49.9259573  51.6714303  51.1197193
  48.6703673  50.9540323  50.6717063  37.4437463  54.5968193  37.7366813
  37.8035103  55.1957533  37.0824083  37.3029803  55.1428083  38.5101843
  37.1406733  38.8742793  51.2242683  36.4265253  39.0739713  51.8295293
  37.5601773  38.0982363  51.5957483  51.2437683  48.4873273  38.6236513
  50.9559383  48.9485963  39.4114393  52.0389853  48.0271043  38.8920733
  37.4279323  52.8623053  52.2109213  37.5370443  51.9217793  52.0704603
  36.7759883  53.1277803  51.5622943  45.4191913  51.1338943  53.6107333
  45.0988783  50.4148183  54.1553023  44.7450273  51.8094013  53.6843393
  43.4606083  51.9799393  38.5540483  43.4516183  52.7129083  37.9384993
  42.5404443  51.7330973  38.6467443  39.0612723  47.2014283  39.2987243
  38.4540673  47.9413183  39.3082543  39.5362073  47.2913643  38.4725443
  48.6345513  41.3665103  48.9744133  49.0026333  40.5460313  49.3023703
  47.7743713  41.4266993  49.3899783  52.0007543  40.3222043  39.7831693
  51.3720703  40.4267713  39.0689923  51.5059463  40.5418823  40.5725573
  46.4465683  52.0427633  37.2165673  46.5477663  51.8391623  36.2867653
  45.5467423  51.7885913  37.4213453  43.9691573  42.6007993  41.1989573
  43.2607723  43.0694333  41.6403183  44.2536053  41.9430003  41.8334763
  45.5947503  44.0204693  49.1982103  46.0932753  44.4950513  49.8633953
  45.7370453  43.0968213  49.4052133  48.0007003  39.3258653  42.6385363
  47.8774783  39.3444783  41.6894873  48.9491563  39.3737593  42.7583763
  45.0883793  54.5613953  41.9113343  45.3425293  54.5235343  40.9892713
  44.1396273  54.4347283  41.9041593  42.1726593  40.9093073  38.5740283
  43.0217123  41.3463223  38.5080473  41.8057863  41.2213333  39.4012343
  52.8014363  40.2372653  50.0410493  52.2987963  40.9778053  50.3804303
  53.6171023  40.6256653  49.7247283  51.0936373  45.4805833  43.4871853
  50.1526513  45.4956063  43.6619543  51.4080443  44.6941793  43.9332153
  41.0718013  47.1625433  37.0475813  41.8381283  47.0506793  37.6101243
  41.1492703  46.4663403  36.3952583  39.7664773  44.5950503  37.7308703
  39.8468363  43.6478013  37.8426103  40.6584523  44.9257383  37.8369363
  53.0961953  52.6514683  45.1626113  53.2209373  53.4745853  45.6349923
  53.9627513  52.4405413  44.8150263  40.5679483  54.7445893  44.8343243
  41.3041963  54.1961353  45.1051813  40.9520403  55.6101903  44.6949233
  37.4524963  50.8119463  40.7084753  36.5264743  51.0540603  40.6990163
  37.9181393  51.6393723  40.5869503  39.5737763  53.9291963  54.0228823
  40.3750493  54.2504013  54.4364223  39.0589583  53.5687543  54.7448733
  43.6781793  53.9176203  36.6568813  44.4710403  54.2065033  36.2050603
  43.1586143  53.4868373  35.9781293  48.4102393  50.0371833  53.9704233
  47.8040553  50.0603433  53.2299983  48.1056503  49.3054873  54.5071483
  49.8402763  53.7652123  52.5813643  50.7924513  53.6810143  52.5313883
  49.6930983  54.4293833  53.2547433  52.7311963  53.1446333  38.0805553
  52.4453473  52.7311473  37.2659733  52.5331513  54.0734043  37.9606073
  37.2935573  46.4165423  52.9664873  37.7974593  45.8372703  53.5381103
  36.5542993  46.7005653  53.5041243  44.1959193  49.1379613  36.5211163
  44.0909833  48.5231963  37.2472543  44.0283413  48.6145503  35.7374173
  44.3473513  47.8236413  52.5000393  43.5819183  48.3921413  52.4155063
  44.5289473  47.5312623  51.6068623  47.4361923  48.1999643  37.1253153
  46.8872023  48.6468943  37.7695893  48.0581183  47.6948893  37.6490823
  51.4896863  49.5541743  53.0575413  52.2306333  49.8917503  52.5542873
  50.7269543  49.7233803  52.5045183  39.3258653  44.5595013  53.8614943
  39.3663993  44.2608883  54.7700173  40.1804153  44.9602623  53.7022463
  43.1037043  47.1590563  39.0218453  43.5253463  46.9930433  39.8649843
  43.2287883  46.3490793  38.5273593  41.2664463  43.1387113  51.8289433
  40.7360923  42.6478063  51.2012773  41.9352533  43.5671313  51.2947363
  45.6164683  46.1828173  36.2695553  46.1370343  45.4677193  35.9036703
  46.2633083  46.8214043  36.5696063  50.1642523  47.6056573  51.5930623
  50.5783543  47.7601653  52.4421043  49.2293523  47.7311793  51.7556403
  50.6364693  44.9452733  53.5969773  51.2185463  44.1905053  53.5090253
  50.8126463  45.4760173  52.8201253  41.7536763  40.1049483  51.9086723
  41.6593633  39.4870233  51.1837593  41.1734153  40.8315773  51.6816633
  44.5198203  38.6622723  48.9414113  44.0715503  38.6846983  48.0959663
  43.8863403  38.2641743  49.5384413  44.9257753  47.5577053  49.5626553
  45.3445863  48.4009783  49.3902793  44.0066383  47.6949093  49.3333333
  47.2621653  45.2893233  50.9464393  47.3817863  44.6934373  51.6859233
  48.1215653  45.3262923  50.5265693  49.6009553  45.8430423  49.5226903
  49.0744773  46.3673043  48.9192043  49.9440893  46.4757813  50.1536633
  41.9995943  43.2323793  35.9676613  41.7985003  42.3691153  36.3289953
  41.8287993  43.1457153  35.0298213  42.7765173  53.8630063  50.6784283
  42.2386263  54.5876123  50.3592983  43.0299133  53.3860403  49.8881623
  44.0290423  41.8314583  52.2040213  44.6190113  41.5230433  52.8918033
  43.2110663  41.3594333  52.3600113  48.8483853  41.4480393  52.4373233
  48.1599373  40.7861933  52.3723223  49.5689873  41.0018663  52.8821693
  49.4784253  38.0432023  38.4963493  49.7586543  37.1999923  38.8522913
  48.7049983  38.2755133  39.0102243  45.6327383  55.0981273  50.9370933
  45.5586083  56.0016413  51.2443303  44.7306223  54.7793173  50.9093003
  44.0163673  39.2759033  36.9410693  43.6685673  38.5983023  36.3613143
  44.2176443  38.8148543  37.7554083  46.1812713  54.2639783  38.5597293
  47.0763503  54.6024753  38.5816053  46.2130343  53.5419193  37.9321573
  39.8208873  49.6366833  36.7884293  40.2583743  50.1796503  37.4441873
  40.3056603  48.8113783  36.7980633  37.0354673  52.4255863  44.2404553
  37.3657683  51.5576923  44.0083193  37.4645673  52.6314383  45.0709513
  41.6316593  50.7564873  41.9006523  41.3312133  50.6329843  42.8010433
  41.5254083  49.8973463  41.4922253  37.5244883  53.2926453  46.9786183
  37.0875873  53.4727253  47.8110333  38.0922563  54.0501073  46.8367903
  53.1607063  52.7943453  51.2663493  52.5609053  52.8536013  50.5227413
  53.2900963  51.8548433  51.3960343  54.4008513  50.5361273  36.6033203
  53.5701473  50.6037923  37.0740433  54.5780343  51.4265393  36.3000063
  53.8564973  47.2808753  39.1067403  54.6183883  47.8505403  39.2127093
  53.8719343  46.7135953  39.8775713  37.3569313  45.8046683  43.3375063
  36.7018153  45.5358323  42.6934763  38.1947263  45.6951163  42.8877043
  54.8624943  48.1358853  43.9509333  55.2333773  47.3526173  43.5445303
  55.5026873  48.8247953  43.7726633  51.8458703  49.5195433  49.3639653
  51.0318543  49.9492593  49.6265443  52.2532903  50.1313843  48.7508703
  53.9084143  47.5743123  36.2639923  54.1832983  48.4822003  36.1359143
  53.7194883  47.5105653  37.2001913  50.3059753  40.5987973  37.5593553
  50.7244633  40.4118953  36.7190213  49.9995813  39.7467023  37.8696483
  53.8049483  45.5112113  41.2569353  53.4293083  44.7440043  40.8250643
  53.0752603  45.8934813  41.7444283  38.3945243  46.1899253  47.8778403
  38.7618283  46.1026653  48.7574423  37.8256063  45.4265803  47.7785263
  53.1949103  44.6583633  50.8908873  52.9635193  44.4296383  49.9906823
  53.4553653  45.5783183  50.8453763  37.9461243  43.1008343  51.7836823
  37.0517293  43.0675103  52.1230533  38.4858793  43.2995133  52.5488073
  51.6337173  39.8840063  53.6688573  52.5107353  39.8923463  54.0522573
  51.6458013  39.1470903  53.0580923  36.5707393  43.0145613  39.2800393
  35.6671473  43.2775813  39.1052053  37.0548013  43.2856783  38.5000353
  53.0800443  43.7369603  44.5576593  53.6037923  43.2432253  43.9266763
  53.6659863  43.8719963  45.3024163  53.2590163  43.8209473  48.0796143
  52.3092873  43.7873013  48.1941133  53.4403173  44.7309583  47.8445913
  39.1134603  42.0711153  37.1894773  39.8226303  41.6494373  36.7042053
  38.3974543  42.1386383  36.5578123  52.5700413  42.9942953  40.4969003
  53.0659533  42.7613823  41.2817883  52.3716483  42.1554793  40.0806643
  38.4500953  37.3756673  46.1320043  39.0977143  36.8254053  45.6915203
  38.8702793  37.6299823  46.9535853  53.9987573  41.6303903  43.0306683
  53.8886853  41.4759943  43.9688953  54.7595163  41.1024843  42.7882093
  52.3453293  37.5698033  49.4889683  52.9825513  38.1832173  49.8548873
  52.4928183  37.6058693  48.5438913  54.8877843  39.4611823  36.2712823
  55.8127153  39.3293003  36.0631113  54.8653633  39.5404643  37.2249273
  54.9616333  40.2322483  38.8969533  54.1667833  40.1667603  39.4262443
  55.1659613  41.1673123  38.8854883  51.9034753  54.2714033  42.8907923
  52.4993823  53.9498603  42.2142343  52.1612903  53.7985853  43.6821193
  38.2032953  37.5312343  48.8745363  37.8547773  37.9876163  49.6403543
  37.8720653  36.6369473  48.9567793  39.8097323  50.7031943  53.0398553
  39.7666953  50.3324853  53.9213013  39.9408333  51.6409513  53.1800373
  43.5103353  52.2591533  48.6408273  43.2694713  52.5266093  47.7538793
  44.4505993  52.4297263  48.6959133  45.7157773  38.7224223  52.3964783
  45.6546663  39.3146053  53.1460193  46.6558153  38.6150183  52.2515043
  48.3532333  38.3794283  52.0357073  48.9672743  38.6973573  51.3738153
  48.8981893  37.8942873  52.6552933  54.7707513  54.2785913  49.4418913
  54.2765793  54.6754783  48.7246043  54.1620803  53.6535123  49.8356193
  38.8753593  37.0588543  52.1496133  39.4236583  36.8776593  51.3862243
  38.9408903  36.2682653  52.6852443  39.6485353  53.6494193  50.1596333
  39.0545673  53.5178893  50.8986373  39.6409193  52.8132333  49.6938433
  49.0940373  36.9426423  48.3626363  48.2200213  37.2761533  48.1599293
  48.9851123  36.4699603  49.1878233  50.0012353  39.1497293  49.7468083
  49.6725713  38.3349053  49.3669813  50.9494653  39.1067103  49.6233773
  52.4546963  54.9209333  46.7205653  51.9949933  55.6725143  46.3463673
  51.8259423  54.2015803  46.6620453  39.2797583  51.0152573  49.1104373
  38.5531643  50.3957863  49.0430323  39.3406733  51.4093183  48.2402453
  42.8842683  53.2297573  45.8953783  43.4007703  52.6184933  45.3702043
  43.5340063  53.7326353  46.3864793  45.6238183  54.1206063  46.7222763
  45.9115993  53.8660363  45.8455773  46.1361403  53.5683423  47.3128333
  46.8415193  37.8596263  47.3019273  46.0586983  38.3341763  47.5816033
  46.5478123  36.9551093  47.1932453  51.3936263  38.5619363  45.3468363
  51.8344353  38.5064463  44.4989963  51.1243853  39.4777373  45.4178543
  53.2574833  38.1934603  43.3577183  53.1963233  37.2495823  43.2108203
  54.0366863  38.3014693  43.9030643  37.5627583  54.3326963  42.3201133
  37.3949623  53.6997643  43.0183023  36.6962093  54.5386363  41.9695323
  44.7269413  40.2783013  42.8135303  43.9143923  39.9039903  42.4731183
  45.2311053  39.5228093  43.1156493  49.2294393  36.9425463  44.0518373
  49.8323763  37.5145673  44.5266893  48.4887383  37.5064903  43.8292273
  52.3728993  37.3447023  39.3258653  52.5679623  38.2430473  39.5926083
  51.5858863  37.1134103  39.8191603  39.1690283  53.0260193  39.7651273
  38.6437903  53.4068223  39.0613233  39.0934863  53.6510963  40.4860983
  42.7518593  38.4282933  41.4180353  42.1221333  37.7270243  41.5850483
  42.2123733  39.1887063  41.2013513  45.6910543  55.0422163  54.0890963
  46.6177853  54.8066433  54.1326923  45.6760973  55.8694163  53.6076993
  53.9255603  54.5847733  41.0865213  54.1007793  53.8985473  40.4426133
  53.2277173  55.1094783  40.6941883  42.8774153  37.7066913  53.8532843
  42.5958423  38.2100513  53.0893663  43.2593853  36.9088663  53.4874973
  41.7683253  54.9742573  38.6400523  42.5002073  54.6901853  38.0924413
  42.0276923  54.7355853  39.5299903  40.9298043  51.0907303  38.6446853
  40.3006923  51.5592403  39.1932683  41.0445873  50.2456523  39.0793043
  49.4789613  37.1220493  54.4313313  49.3655063  37.4415103  55.3264833
  50.2959353  37.5233003  54.1350593  52.2588103  54.2692023  53.9132003
  53.0513423  53.7741253  53.7057963  52.5521253  54.9482163  54.5207613
  48.3847763  45.1412963  24.7948053  48.3041813  44.2267573  24.5239763
  47.9712183  45.6380033  24.0887763  46.5165803  46.9191983  26.6757323
  45.7407903  46.4392423  26.9655893  47.1678733  46.2397633  26.5013483
  40.5331633  47.2311793  27.5533083  39.7016513  46.9760503  27.9529593
  41.1412613  47.3022563  28.2891003  50.5373233  51.3252173  25.4556453
  50.0754763  50.5539413  25.7843623  51.3498783  51.3518243  25.9608903
  40.5132893  51.2651883  27.7491103  40.8160933  50.3749623  27.5701323
  41.2576483  51.8222103  27.5213353  38.9423583  42.1913683  21.3375473
  38.0540283  42.5329653  21.2355353  39.2264773  41.9914003  20.4456303
  36.9056593  44.7919333  27.2215173  37.4772703  44.0241533  27.2218813
  36.9058133  45.0908093  26.3121783  46.7636543  53.6110183  25.0760443
  46.1447983  54.0667683  24.5054883  47.6188323  53.7661643  24.6750143
  45.9574793  49.5949173  26.6827483  45.8883073  48.6539113  26.5216613
  46.7194653  49.6850583  27.2550053  38.1481463  40.2003693  29.0084103
  37.9684303  39.3029443  29.2886863  37.7461543  40.7475563  29.6831053
  46.9879963  42.4019553  26.9096413  47.3644783  41.5291433  26.7970083
  46.8899473  42.7378253  26.0186853  41.1184973  40.7745183  22.3713853
  41.2251723  41.6748913  22.6782613  40.2077333  40.7263153  22.0808503
  50.7704083  39.8969993  23.8424753  51.5913703  39.4066563  23.8850233
  50.8038163  40.4867653  24.5956593  38.7668133  42.6964193  27.6166443
  39.4478243  42.9602563  28.2353843  38.4516183  41.8565063  27.9504453
  42.9592703  43.7431553  26.7039033  43.4670923  44.2412523  27.3444053
  43.4905943  42.9666753  26.5278393  55.0603633  41.9136743  30.4068383
  54.3555803  42.3018453  29.8883493  55.3261553  42.6087033  31.0089313
  47.6299893  48.4949423  22.4692353  47.0117163  48.9598873  21.9055073
  48.1423143  49.1876903  22.8861863  42.4931653  48.0225293  29.1475953
  42.1601033  48.6494213  29.7897023  42.6698333  48.5487173  28.3677623
  51.0065563  41.8370373  26.6152293  50.3021133  42.1255263  27.1955403
  51.3677723  42.6470483  26.2551853  40.9244133  40.0940073  28.9772903
  41.2660943  40.9382123  28.6826773  39.9859943  40.2423813  29.0938243
  41.7050753  49.9906093  30.9625133  42.3224753  50.6657173  30.6809583
  40.8443873  50.3994073  30.8712633  36.9983093  49.1805953  19.8431983
  36.6211073  49.6693053  19.1116883  37.2556163  49.8531233  20.4738513
  52.6228343  51.4545503  28.8779773  51.9391863  52.1244613  28.8696443
  53.1622633  51.6526153  28.1124633  54.0752483  41.2825163  27.0061503
  53.1277393  41.3164143  27.1376933  54.4002473  42.0964113  27.3910863
  44.6072023  37.5822343  25.3017493  44.9147003  37.0269233  24.5852993
  43.6772723  37.7166803  25.1190483  50.1587083  53.2989633  27.5924953
  50.1714243  52.8951923  26.7247213  49.6062303  54.0736923  27.4886383
  51.4532503  50.0205853  22.6815123  51.3428833  49.0780183  22.8064543
  51.4500753  50.3821493  23.5677883  49.5572523  48.2019473  28.9207563
  49.9741313  47.9879583  28.0861023  50.2812343  48.4592263  29.4916183
  46.9952783  45.6471173  22.0377613  46.0682063  45.5808553  22.2666083
  47.1477603  46.5851303  21.9232853  46.9821863  41.9188173  19.0344773
  46.0425533  42.0802133  19.1197233  47.3005123  42.6373853  18.4880763
  53.5034623  46.6006693  29.0123803  52.6753253  46.6699783  28.5373933
  54.0985103  47.1861003  28.5439633  51.0250073  47.2091473  22.5412863
  50.4062493  46.8711023  21.8939163  51.0074523  46.5651233  23.2492053
  50.4676633  43.3876013  29.9578673  50.0547813  44.2129723  30.2118663
  49.7352583  42.8021053  29.7655033  42.6009423  46.1735913  24.8197343
  42.1966423  45.4613163  24.3243243  42.6872543  45.8289153  25.7085383
  43.0691123  49.8603473  26.9836553  42.7719413  49.2548943  26.3044333
  44.0190943  49.8980783  26.8725913  41.3138043  42.9479123  28.5996383
  41.8652633  43.0574463  27.8249633  41.8281553  43.3216723  29.3151613
  51.1576733  53.4335343  30.6459653  50.6807293  54.2407533  30.4532263
  50.4738523  52.7813673  30.7985863  42.1609553  49.5985163  33.6344353
  41.2638083  49.8225133  33.8817753  42.1862423  49.7220103  32.6855753
  49.2014773  46.4478283  19.5485613  49.6408053  45.6100713  19.4023433
  49.9143193  47.0807683  19.6349753  40.9880773  46.4698483  32.2101723
  40.8488543  47.3421283  32.5789123  40.1062133  46.1271293  32.0649663
  47.3110153  51.3874353  23.5166853  47.7506063  52.1298683  23.1022243
  47.2497043  51.6300923  24.4405813  42.7861123  52.4120183  34.4186873
  42.7576553  52.8163133  33.5515303  42.6226093  51.4830543  34.2558473
  52.7831913  37.7021093  17.8626653  52.4704573  37.7947923  18.7625723
  53.5444383  38.2802123  17.8124083  39.3014053  45.0680893  22.3203993
  39.1811653  45.7942983  21.7085263  38.9914943  44.2983803  21.8431903
  54.7375943  53.1947283  35.7151043  55.2135663  53.6730173  36.3940123
  55.3583103  53.1264773  34.9896543  36.9399423  48.2396033  28.1272633
  37.0179843  48.3744803  27.1828353  37.5541103  47.5311923  28.3200753
  38.1847053  49.9396223  24.5378813  37.7775133  50.0810813  23.6832413
  39.0760063  49.6556383  24.3350023  54.1409193  50.3860133  32.8751053
  54.2672253  50.1472013  31.9568233  54.1830573  49.5544673  33.3473133
  48.0025933  54.0888133  31.4445863  48.5170603  53.9996143  32.2468293
  47.1595013  54.4347833  31.7373773  49.9780333  54.3743473  20.8729863
  49.8181473  54.0846413  21.7711693  49.8127043  53.5983603  20.3375093
  42.4568713  54.1542003  22.6501483  42.2811193  53.2377543  22.4369283
  41.6024453  54.5129293  22.8899283  49.6806463  51.8831033  19.4327863
  48.9871623  51.8808323  18.7730143  50.4229323  51.4590353  19.0022033
  49.2456393  53.5093743  23.5076353  49.7013343  52.7283123  23.8214973
  49.5848913  54.2200563  24.0517533  53.9933203  42.4392593  33.8400793
  53.3777473  42.9472263  33.3116253  53.6729623  41.5390923  33.7826733
  36.9958943  49.2810203  30.6667093  37.1589983  48.8115563  29.8486463
  37.4611393  48.7733763  31.3315933  41.7677713  38.4115963  25.7027663
  41.3245863  39.1925503  25.3712183  42.3262703  38.7345853  26.4098603
  46.0547523  41.2784483  31.3062983  45.5926893  41.4867503  32.1182923
  45.6525633  40.4643833  31.0033653  51.0552033  42.4993433  32.4359643
  50.2045623  42.1999183  32.7568713  50.8953823  42.7435443  31.5243463
  48.1501743  43.9995183  34.5358433  48.4755153  43.1658933  34.1960663
  48.9382073  44.5223703  34.6836763  44.8836533  38.0326663  20.5833493
  44.2590713  38.0286533  21.3086803  44.7966653  37.1657623  20.1869463
  43.8053613  38.9563293  27.5617263  44.1025943  39.8626123  27.4809283
  44.3539173  38.4682073  26.9476833  41.5591933  43.5349533  23.4308913
  41.3332853  43.3186703  24.3355533  40.7784463  43.9677993  23.0854883
  48.7889693  43.5412903  22.0299563  48.1898583  44.2648703  21.8463183
  49.3369303  43.4789683  21.2476013  43.9991143  44.4335113  34.0969183
  43.9034743  43.4929843  33.9469583  44.8423123  44.6550183  33.7017253
  47.3954563  42.1776443  24.0602843  47.7884133  42.4948643  23.2471533
  47.7571413  41.2988323  24.1747363  45.7046733  40.9283753  35.3199703
  45.0145053  40.7355953  35.9545793  46.4479033  41.2118393  35.8524003
  36.4318733  38.7677243  26.2833043  36.1431783  39.3380103  26.9958023
  37.1764493  38.2881693  26.6464273  36.6188963  42.7097363  17.4935763
  36.5363633  43.6528123  17.6350753  36.2672023  42.5672273  16.6148113
  47.9809703  44.7682193  28.1553623  47.2490823  45.2769003  28.5043723
  47.5834043  43.9512173  27.8542403  44.4187093  41.4436393  26.5606113
  44.4223153  41.0026343  25.7110653  45.3138213  41.7653723  26.6677933
  40.2689473  41.3262883  25.5200323  39.9289523  41.8038113  26.2767373
  39.5066793  40.8728003  25.1601423  44.4807243  42.4448473  19.5512873
  44.6020063  42.4034953  20.4998693  44.0955753  43.3072623  19.3959603
  48.4435613  40.2215873  27.5676563  48.4608353  40.6724523  28.4118413
  48.1951193  39.3221513  27.7810003  43.4928743  44.7549613  18.9496173
  42.9245643  44.3067863  18.3232083  44.2017743  45.1142393  18.4161323
  51.8706363  37.6348053  33.4062943  52.1952133  36.9037713  33.9320923
  51.9062873  37.3161693  32.5043933  38.5697923  48.6561633  32.8262903
  38.1852713  48.0155303  33.4245863  38.8810113  49.3597753  33.3957633
  44.7195063  45.5038173  28.3071523  45.0865193  45.0296743  29.0532863
  44.5300123  46.3779743  28.6479863  37.5835553  40.2481863  24.4364993
  37.2982473  39.8837533  25.2743613  37.5214413  39.5162323  23.8228133
  42.5094433  44.5446813  30.6255733  42.2051503  45.4238793  30.8506093
  43.4640893  44.6046603  30.6613173  41.0376223  48.7507803  21.2222583
  40.2638483  48.2105423  21.0621303  41.7670853  48.2314413  20.8840343
  51.7964203  47.7473163  27.0148973  52.5163323  48.2428453  26.6245083
  51.5946023  47.0691053  26.3702843  47.2574143  39.1411123  21.1578363
  46.4438753  38.6424293  21.0823673  47.0636093  39.9809373  20.7414713
  47.1783003  47.8182223  32.9017973  47.1120313  46.8977893  32.6475563
  46.5488143  47.9157663  33.6162613  49.9722533  43.5130773  19.4540523
  50.8602153  43.8248003  19.2791863  49.9427623  42.6403023  19.0621103
  41.0813623  48.4188183  24.8601393  41.5992293  47.6156443  24.8058283
  40.6297643  48.3567323  25.7018223  45.9683123  49.6854463  20.1328693
  46.3098823  50.4296693  19.6372013  45.1395833  49.9985583  20.4953523
  38.5658163  45.3849553  31.7727093  38.2073103  46.0503403  32.3600433
  38.2712723  44.5533103  32.1439713  41.7671283  45.8433793  34.6566643
  41.4671423  45.9890973  33.7594463  42.5382523  45.2839083  34.5640033
  47.1099733  50.6402793  32.6521773  47.1244273  49.7083753  32.4340683
  46.4024833  50.7262553  33.2911543  52.2436803  44.8242613  18.9220383
  52.1600523  45.2556833  18.0716823  52.9630993  45.2840963  19.3547203
  53.3210943  47.2810133  31.9990353  52.5959133  47.8738913  31.8019743
  53.8486403  47.2733673  31.2003723  53.2724053  51.6784873  21.6502513
  52.6300213  51.0240493  21.9246233  52.8854713  52.0839963  20.8743183
  48.8510533  49.0070303  25.4974203  49.2034353  48.4098433  24.8375573
  47.9672863  48.6814533  25.6682453  44.9373813  49.7667993  22.9044613
  45.6244943  50.3137203  23.2852203  44.1506233  50.3108723  22.9394223
  37.0766213  45.3840813  18.3961693  37.9461063  45.6665613  18.6797613
  36.5856533  46.1976683  18.2810503  44.2401023  46.7714023  22.5169973
  44.6963803  47.5819273  22.7430163  43.8889233  46.4537163  23.3488463
  46.5433633  52.2820363  29.7462273  47.1875853  52.4879743  30.4235693
  46.9063073  51.5208763  29.2933123  40.1412803  37.1151673  22.9892493
  40.0127433  37.1069573  23.9377413  39.3174823  37.4534763  22.6383503
  47.8165713  50.2852713  28.4639723  48.4587943  49.5845873  28.5771893
  48.3415063  51.0651153  28.2836613  51.6621433  50.5701333  18.1878863
  51.4359013  49.8531773  18.7803503  51.2717633  50.3213773  17.3500613
  49.5903333  51.0847613  31.6675783  49.9259573  51.6714303  32.3453703
  48.6703673  50.9540323  31.8973573  37.4437463  54.5968193  18.9623323
  37.8035103  55.1957533  18.3080593  37.3029803  55.1428083  19.7358353
  51.2437683  48.4873273  19.8493023  50.9559383  48.9485963  20.6370903
  52.0389853  48.0271043  20.1177243  37.4279323  52.8623053  33.4365723
  37.5370443  51.9217793  33.2961113  36.7759883  53.1277803  32.7879453
  45.4191913  51.1338943  34.8363843  45.0988783  50.4148183  35.3809533
  44.7450273  51.8094013  34.9099903  43.4606083  51.9799393  19.7796993
  43.4516183  52.7129083  19.1641503  42.5404443  51.7330973  19.8723953
  39.0612723  47.2014283  20.5243753  38.4540673  47.9413183  20.5339053
  39.5362073  47.2913643  19.6981953  48.6345513  41.3665103  30.2000643
  49.0026333  40.5460313  30.5280213  47.7743713  41.4266993  30.6156293
  52.0007543  40.3222043  21.0088203  51.3720703  40.4267713  20.2946433
  51.5059463  40.5418823  21.7982083  46.4465683  52.0427633  18.4422183
  46.5477663  51.8391623  17.5124163  45.5467423  51.7885913  18.6469963
  43.9691573  42.6007993  22.4246083  43.2607723  43.0694333  22.8659693
  44.2536053  41.9430003  23.0591273  45.5947503  44.0204693  30.4238613
  46.0932753  44.4950513  31.0890463  45.7370453  43.0968213  30.6308643
  48.0007003  39.3258653  23.8641873  47.8774783  39.3444783  22.9151383
  48.9491563  39.3737593  23.9840273  45.0883793  54.5613953  23.1369853
  45.3425293  54.5235343  22.2149223  44.1396273  54.4347283  23.1298103
  42.1726593  40.9093073  19.7996793  43.0217123  41.3463223  19.7336983
  41.8057863  41.2213333  20.6268853  52.8014363  40.2372653  31.2667003
  52.2987963  40.9778053  31.6060813  53.6171023  40.6256653  30.9503793
  51.0936373  45.4805833  24.7128363  50.1526513  45.4956063  24.8876053
  51.4080443  44.6941793  25.1588663  41.0718013  47.1625433  18.2732323
  41.8381283  47.0506793  18.8357753  41.1492703  46.4663403  17.6209093
  39.7664773  44.5950503  18.9565213  39.8468363  43.6478013  19.0682613
  40.6584523  44.9257383  19.0625873  53.0961953  52.6514683  26.3882623
  53.2209373  53.4745853  26.8606433  53.9627513  52.4405413  26.0406773
  40.5679483  54.7445893  26.0599753  41.3041963  54.1961353  26.3308323
  40.9520403  55.6101903  25.9205743  37.4524963  50.8119463  21.9341263
  36.5264743  51.0540603  21.9246673  37.9181393  51.6393723  21.8126013
  39.5737763  53.9291963  35.2485333  40.3750493  54.2504013  35.6620733
  39.0589583  53.5687543  35.9705243  43.6781793  53.9176203  17.8825323
  44.4710403  54.2065033  17.4307113  43.1586143  53.4868373  17.2037803
  48.4102393  50.0371833  35.1960743  47.8040553  50.0603433  34.4556493
  48.1056503  49.3054873  35.7327993  49.8402763  53.7652123  33.8070153
  50.7924513  53.6810143  33.7570393  49.6930983  54.4293833  34.4803943
  52.7311963  53.1446333  19.3062063  52.4453473  52.7311473  18.4916243
  52.5331513  54.0734043  19.1862583  37.2935573  46.4165423  34.1921383
  37.7974593  45.8372703  34.7637613  36.5542993  46.7005653  34.7297753
  44.1959193  49.1379613  17.7467673  44.0909833  48.5231963  18.4729053
  44.0283413  48.6145503  16.9630683  44.3473513  47.8236413  33.7256903
  43.5819183  48.3921413  33.6411573  44.5289473  47.5312623  32.8325133
  47.4361923  48.1999643  18.3509663  46.8872023  48.6468943  18.9952403
  48.0581183  47.6948893  18.8747333  51.4896863  49.5541743  34.2831923
  52.2306333  49.8917503  33.7799383  50.7269543  49.7233803  33.7301693
  39.3258653  44.5595013  35.0871453  39.3663993  44.2608883  35.9956683
  40.1804153  44.9602623  34.9278973  43.1037043  47.1590563  20.2474963
  43.5253463  46.9930433  21.0906353  43.2287883  46.3490793  19.7530103
  41.2664463  43.1387113  33.0545943  40.7360923  42.6478063  32.4269283
  41.9352533  43.5671313  32.5203873  45.6164683  46.1828173  17.4952063
  46.1370343  45.4677193  17.1293213  46.2633083  46.8214043  17.7952573
  50.1642523  47.6056573  32.8187133  50.5783543  47.7601653  33.6677553
  49.2293523  47.7311793  32.9812913  50.6364693  44.9452733  34.8226283
  51.2185463  44.1905053  34.7346763  50.8126463  45.4760173  34.0457763
  44.5198203  38.6622723  30.1670623  44.0715503  38.6846983  29.3216173
  43.8863403  38.2641743  30.7640923  44.9257753  47.5577053  30.7883063
  45.3445863  48.4009783  30.6159303  44.0066383  47.6949093  30.5589843
  47.2621653  45.2893233  32.1720903  47.3817863  44.6934373  32.9115743
  48.1215653  45.3262923  31.7522203  49.6009553  45.8430423  30.7483413
  49.0744773  46.3673043  30.1448553  49.9440893  46.4757813  31.3793143
  41.9995943  43.2323793  17.1933123  41.7985003  42.3691153  17.5546463
  41.8287993  43.1457153  16.2554723  42.7765173  53.8630063  31.9040793
  42.2386263  54.5876123  31.5849493  43.0299133  53.3860403  31.1138133
  44.0290423  41.8314583  33.4296723  44.6190113  41.5230433  34.1174543
  43.2110663  41.3594333  33.5856623  48.8483853  41.4480393  33.6629743
  48.1599373  40.7861933  33.5979733  49.5689873  41.0018663  34.1078203
  49.4784253  38.0432023  19.7220003  49.7586543  37.1999923  20.0779423
  48.7049983  38.2755133  20.2358753  40.7978743  40.3324413  17.1811003
  41.1004643  40.3391843  16.2730153  41.5373333  39.9822273  17.6778663
  45.6327383  55.0981273  32.1627443  45.5586083  56.0016413  32.4699813
  44.7306223  54.7793173  32.1349513  44.0163673  39.2759033  18.1667203
  43.6685673  38.5983023  17.5869653  44.2176443  38.8148543  18.9810593
  46.1812713  54.2639783  19.7853803  47.0763503  54.6024753  19.8072563
  46.2130343  53.5419193  19.1578083  39.8208873  49.6366833  18.0140803
  40.2583743  50.1796503  18.6698383  40.3056603  48.8113783  18.0237143
  37.0354673  52.4255863  25.4661063  37.3657683  51.5576923  25.2339703
  37.4645673  52.6314383  26.2966023  41.6316593  50.7564873  23.1263033
  41.3312133  50.6329843  24.0266943  41.5254083  49.8973463  22.7178763
  37.5244883  53.2926453  28.2042693  37.0875873  53.4727253  29.0366843
  38.0922563  54.0501073  28.0624413  53.1607063  52.7943453  32.4920003
  52.5609053  52.8536013  31.7483923  53.2900963  51.8548433  32.6216853
  54.4008513  50.5361273  17.8289713  53.5701473  50.6037923  18.2996943
  54.5780343  51.4265393  17.5256573  53.8564973  47.2808753  20.3323913
  54.6183883  47.8505403  20.4383603  53.8719343  46.7135953  21.1032223
  37.3569313  45.8046683  24.5631573  36.7018153  45.5358323  23.9191273
  38.1947263  45.6951163  24.1133553  54.8624943  48.1358853  25.1765843
  55.2333773  47.3526173  24.7701813  55.5026873  48.8247953  24.9983143
  51.8458703  49.5195433  30.5896163  51.0318543  49.9492593  30.8521953
  52.2532903  50.1313843  29.9765213  53.9084143  47.5743123  17.4896433
  54.1832983  48.4822003  17.3615653  53.7194883  47.5105653  18.4258423
  50.3059753  40.5987973  18.7850063  50.7244633  40.4118953  17.9446723
  49.9995813  39.7467023  19.0952993  53.8049483  45.5112113  22.4825863
  53.4293083  44.7440043  22.0507153  53.0752603  45.8934813  22.9700793
  38.3945243  46.1899253  29.1034913  38.7618283  46.1026653  29.9830933
  37.8256063  45.4265803  29.0041773  53.1949103  44.6583633  32.1165383
  52.9635193  44.4296383  31.2163333  53.4553653  45.5783183  32.0710273
  37.9461243  43.1008343  33.0093333  37.0517293  43.0675103  33.3487043
  38.4858793  43.2995133  33.7744583  51.6337173  39.8840063  34.8945083
  52.5107353  39.8923463  35.2779083  51.6458013  39.1470903  34.2837433
  36.5707393  43.0145613  20.5056903  35.6671473  43.2775813  20.3308563
  37.0548013  43.2856783  19.7256863  53.0800443  43.7369603  25.7833103
  53.6037923  43.2432253  25.1523273  53.6659863  43.8719963  26.5280673
  53.2590163  43.8209473  29.3052653  52.3092873  43.7873013  29.4197643
  53.4403173  44.7309583  29.0702423  39.1134603  42.0711153  18.4151283
  39.8226303  41.6494373  17.9298563  38.3974543  42.1386383  17.7834633
  38.7608763  38.1250483  17.4553933  39.4836893  38.6659423  17.7735153
  39.0333283  37.8513903  16.5795473  52.5700413  42.9942953  21.7225513
  53.0659533  42.7613823  22.5074393  52.3716483  42.1554793  21.3063153
  38.4500953  37.3756673  27.3576553  39.0977143  36.8254053  26.9171713
  38.8702793  37.6299823  28.1792363  53.9987573  41.6303903  24.2563193
  53.8886853  41.4759943  25.1945463  54.7595163  41.1024843  24.0138603
  52.3453293  37.5698033  30.7146193  52.9825513  38.1832173  31.0805383
  52.4928183  37.6058693  29.7695423  54.8877843  39.4611823  17.4969333
  55.8127153  39.3293003  17.2887623  54.8653633  39.5404643  18.4505783
  54.9616333  40.2322483  20.1226043  54.1667833  40.1667603  20.6518953
  55.1659613  41.1673123  20.1111393  51.9034753  54.2714033  24.1164433
  52.4993823  53.9498603  23.4398853  52.1612903  53.7985853  24.9077703
  39.8097323  50.7031943  34.2655063  39.7666953  50.3324853  35.1469523
  39.9408333  51.6409513  34.4056883  43.5103353  52.2591533  29.8664783
  43.2694713  52.5266093  28.9795303  44.4505993  52.4297263  29.9215643
  45.7157773  38.7224223  33.6221293  45.6546663  39.3146053  34.3716703
  46.6558153  38.6150183  33.4771553  48.3532333  38.3794283  33.2613583
  48.9672743  38.6973573  32.5994663  48.8981893  37.8942873  33.8809443
  54.7707513  54.2785913  30.6675423  54.2765793  54.6754783  29.9502553
  54.1620803  53.6535123  31.0612703  39.6485353  53.6494193  31.3852843
  39.0545673  53.5178893  32.1242883  39.6409193  52.8132333  30.9194943
  49.0940373  36.9426423  29.5882873  48.2200213  37.2761533  29.3855803
  48.9851123  36.4699603  30.4134743  50.0012353  39.1497293  30.9724593
  49.6725713  38.3349053  30.5926323  50.9494653  39.1067103  30.8490283
  52.4546963  54.9209333  27.9462163  51.9949933  55.6725143  27.5720183
  51.8259423  54.2015803  27.8876963  39.2797583  51.0152573  30.3360883
  38.5531643  50.3957863  30.2686833  39.3406733  51.4093183  29.4658963
  42.8842683  53.2297573  27.1210293  43.4007703  52.6184933  26.5958553
  43.5340063  53.7326353  27.6121303  45.6238183  54.1206063  27.9479273
  45.9115993  53.8660363  27.0712283  46.1361403  53.5683423  28.5384843
  46.8415193  37.8596263  28.5275783  46.0586983  38.3341763  28.8072543
  46.5478123  36.9551093  28.4188963  51.3936263  38.5619363  26.5724873
  51.8344353  38.5064463  25.7246473  51.1243853  39.4777373  26.6435053
  53.2574833  38.1934603  24.5833693  53.1963233  37.2495823  24.4364713
  54.0366863  38.3014693  25.1287153  37.5627583  54.3326963  23.5457643
  37.3949623  53.6997643  24.2439533  36.6962093  54.5386363  23.1951833
  38.1855603  38.1643743  21.0489503  38.9434963  38.2772623  20.4753533
  37.7232773  39.0012943  21.0032933  44.7269413  40.2783013  24.0391813
  43.9143923  39.9039903  23.6987693  45.2311053  39.5228093  24.3413003
  49.2294393  36.9425463  25.2774883  49.8323763  37.5145673  25.7523403
  48.4887383  37.5064903  25.0548783  52.3728993  37.3447023  20.5515163
  52.5679623  38.2430473  20.8182593  51.5858863  37.1134103  21.0448113
  39.1690283  53.0260193  20.9907783  38.6437903  53.4068223  20.2869743
  39.0934863  53.6510963  21.7117493  40.5580753  38.6907793  19.5891473
  41.0873513  37.9037593  19.4599423  41.1909073  39.3698983  19.8227003
  42.7518593  38.4282933  22.6436863  42.1221333  37.7270243  22.8106993
  42.2123733  39.1887063  22.4270023  45.6910543  55.0422163  35.3147473
  46.6177853  54.8066433  35.3583433  45.6760973  55.8694163  34.8333503
  53.9255603  54.5847733  22.3121723  54.1007793  53.8985473  21.6682643
  53.2277173  55.1094783  21.9198393  42.8774153  37.7066913  35.0789353
  42.5958423  38.2100513  34.3150173  43.2593853  36.9088663  34.7131483
  41.7683253  54.9742573  19.8657033  42.5002073  54.6901853  19.3180923
  42.0276923  54.7355853  20.7556413  40.9298043  51.0907303  19.8703363
  40.3006923  51.5592403  20.4189193  41.0445873  50.2456523  20.3049553
  49.4789613  37.1220493  35.6569823  49.3655063  37.4415103  36.5521343
  50.2959353  37.5233003  35.3607103  52.2588103  54.2692023  35.1388513
  53.0513423  53.7741253  34.9314473  52.5521253  54.9482163  35.7464123
  48.3847763  45.1412963   6.0204563  48.3041813  44.2267573   5.7496273
  47.9712183  45.6380033   5.3144273  46.5165803  46.9191983   7.9013833
  45.7407903  46.4392423   8.1912403  47.1678733  46.2397633   7.7269993
  40.5331633  47.2311793   8.7789593  39.7016513  46.9760503   9.1786103
  41.1412613  47.3022563   9.5147513  50.5373233  51.3252173   6.6812963
  50.0754763  50.5539413   7.0100133  51.3498783  51.3518243   7.1865413
  40.5132893  51.2651883   8.9747613  40.8160933  50.3749623   8.7957833
  41.2576483  51.8222103   8.7469863  36.9056593  44.7919333   8.4471683
  37.4772703  44.0241533   8.4475323  36.9058133  45.0908093   7.5378293
  46.7636543  53.6110183   6.3016953  46.1447983  54.0667683   5.7311393
  47.6188323  53.7661643   5.9006653  45.9574793  49.5949173   7.9083993
  45.8883073  48.6539113   7.7473123  46.7194653  49.6850583   8.4806563
  38.1481463  40.2003693  10.2340613  37.9684303  39.3029443  10.5143373
  37.7461543  40.7475563  10.9087563  46.9879963  42.4019553   8.1352923
  47.3644783  41.5291433   8.0226593  46.8899473  42.7378253   7.2443363
  41.1184973  40.7745183   3.5970363  41.2251723  41.6748913   3.9039123
  40.2077333  40.7263153   3.3065013  50.7704083  39.8969993   5.0681263
  51.5913703  39.4066563   5.1106743  50.8038163  40.4867653   5.8213103
  38.7668133  42.6964193   8.8422953  39.4478243  42.9602563   9.4610353
  38.4516183  41.8565063   9.1760963  42.9592703  43.7431553   7.9295543
  43.4670923  44.2412523   8.5700563  43.4905943  42.9666753   7.7534903
  55.0603633  41.9136743  11.6324893  54.3555803  42.3018453  11.1140003
  55.3261553  42.6087033  12.2345823  41.2428803  38.3830113  12.1958963
  41.2447243  38.9002503  11.3904863  40.4133113  37.9060293  12.1728893
  47.6299893  48.4949423   3.6948863  47.0117163  48.9598873   3.1311583
  48.1423143  49.1876903   4.1118373  42.4931653  48.0225293  10.3732463
  42.1601033  48.6494213  11.0153533  42.6698333  48.5487173   9.5934133
  51.0065563  41.8370373   7.8408803  50.3021133  42.1255263   8.4211913
  51.3677723  42.6470483   7.4808363  40.9244133  40.0940073  10.2029413
  41.2660943  40.9382123   9.9083283  39.9859943  40.2423813  10.3194753
  41.7050753  49.9906093  12.1881643  42.3224753  50.6657173  11.9066093
  40.8443873  50.3994073  12.0969143  52.6228343  51.4545503  10.1036283
  51.9391863  52.1244613  10.0952953  53.1622633  51.6526153   9.3381143
  54.0752483  41.2825163   8.2318013  53.1277393  41.3164143   8.3633443
  54.4002473  42.0964113   8.6167373  44.6072023  37.5822343   6.5274003
  44.9147003  37.0269233   5.8109503  43.6772723  37.7166803   6.3446993
  50.1587083  53.2989633   8.8181463  50.1714243  52.8951923   7.9503723
  49.6062303  54.0736923   8.7142893  51.4532503  50.0205853   3.9071633
  51.3428833  49.0780183   4.0321053  51.4500753  50.3821493   4.7934393
  49.5572523  48.2019473  10.1464073  49.9741313  47.9879583   9.3117533
  50.2812343  48.4592263  10.7172693  46.9952783  45.6471173   3.2634123
  46.0682063  45.5808553   3.4922593  47.1477603  46.5851303   3.1489363
  53.5034623  46.6006693  10.2380313  52.6753253  46.6699783   9.7630443
  54.0985103  47.1861003   9.7696143  51.0250073  47.2091473   3.7669373
  50.4062493  46.8711023   3.1195673  51.0074523  46.5651233   4.4748563
  50.4676633  43.3876013  11.1835183  50.0547813  44.2129723  11.4375173
  49.7352583  42.8021053  10.9911543  42.6009423  46.1735913   6.0453853
  42.1966423  45.4613163   5.5499753  42.6872543  45.8289153   6.9341893
  43.0691123  49.8603473   8.2093063  42.7719413  49.2548943   7.5300843
  44.0190943  49.8980783   8.0982423  41.3138043  42.9479123   9.8252893
  41.8652633  43.0574463   9.0506143  41.8281553  43.3216723  10.5408123
  51.1576733  53.4335343  11.8716163  50.6807293  54.2407533  11.6788773
  50.4738523  52.7813673  12.0242373  42.1609553  49.5985163  14.8600863
  41.2638083  49.8225133  15.1074263  42.1862423  49.7220103  13.9112263
  40.9880773  46.4698483  13.4358233  40.8488543  47.3421283  13.8045633
  40.1062133  46.1271293  13.2906173  47.3110153  51.3874353   4.7423363
  47.7506063  52.1298683   4.3278753  47.2497043  51.6300923   5.6662323
  42.7861123  52.4120183  15.6443383  42.7576553  52.8163133  14.7771813
  42.6226093  51.4830543  15.4814983  39.3014053  45.0680893   3.5460503
  39.1811653  45.7942983   2.9341773  38.9914943  44.2983803   3.0688413
  54.7375943  53.1947283  16.9407553  55.2135663  53.6730173  17.6196633
  55.3583103  53.1264773  16.2153053  36.9399423  48.2396033   9.3529143
  37.0179843  48.3744803   8.4084863  37.5541103  47.5311923   9.5457263
  38.1847053  49.9396223   5.7635323  37.7775133  50.0810813   4.9088923
  39.0760063  49.6556383   5.5606533  54.1409193  50.3860133  14.1007563
  54.2672253  50.1472013  13.1824743  54.1830573  49.5544673  14.5729643
  48.0025933  54.0888133  12.6702373  48.5170603  53.9996143  13.4724803
  47.1595013  54.4347833  12.9630283  42.4568713  54.1542003   3.8757993
  42.2811193  53.2377543   3.6625793  41.6024453  54.5129293   4.1155793
  49.2456393  53.5093743   4.7332863  49.7013343  52.7283123   5.0471483
  49.5848913  54.2200563   5.2774043  53.9933203  42.4392593  15.0657303
  53.3777473  42.9472263  14.5372763  53.6729623  41.5390923  15.0083243
  36.9958943  49.2810203  11.8923603  37.1589983  48.8115563  11.0742973
  37.4611393  48.7733763  12.5572443  41.7677713  38.4115963   6.9284173
  41.3245863  39.1925503   6.5968693  42.3262703  38.7345853   7.6355113
  46.0547523  41.2784483  12.5319493  45.5926893  41.4867503  13.3439433
  45.6525633  40.4643833  12.2290163  51.0552033  42.4993433  13.6616153
  50.2045623  42.1999183  13.9825223  50.8953823  42.7435443  12.7499973
  48.1501743  43.9995183  15.7614943  48.4755153  43.1658933  15.4217173
  48.9382073  44.5223703  15.9093273  43.8053613  38.9563293   8.7873773
  44.1025943  39.8626123   8.7065793  44.3539173  38.4682073   8.1733343
  41.5591933  43.5349533   4.6565423  41.3332853  43.3186703   5.5612043
  40.7784463  43.9677993   4.3111393  48.7889693  43.5412903   3.2556073
  48.1898583  44.2648703   3.0719693  49.3369303  43.4789683   2.4732523
  43.9991143  44.4335113  15.3225693  43.9034743  43.4929843  15.1726093
  44.8423123  44.6550183  14.9273763  47.3954563  42.1776443   5.2859353
  47.7884133  42.4948643   4.4728043  47.7571413  41.2988323   5.4003873
  39.1301683  40.8448783  13.4759473  38.7365073  41.6923993  13.6832253
  38.4420083  40.2075153  13.6668113  45.7046733  40.9283753  16.5456213
  45.0145053  40.7355953  17.1802303  46.4479033  41.2118393  17.0780513
  36.4318733  38.7677243   7.5089553  36.1431783  39.3380103   8.2214533
  37.1764493  38.2881693   7.8720783  47.9809703  44.7682193   9.3810133
  47.2490823  45.2769003   9.7300233  47.5834043  43.9512173   9.0798913
  44.4187093  41.4436393   7.7862623  44.4223153  41.0026343   6.9367163
  45.3138213  41.7653723   7.8934443  40.2689473  41.3262883   6.7456833
  39.9289523  41.8038113   7.5023883  39.5066793  40.8728003   6.3857933
  48.4435613  40.2215873   8.7933073  48.4608353  40.6724523   9.6374923
  48.1951193  39.3221513   9.0066513  51.8706363  37.6348053  14.6319453
  52.1952133  36.9037713  15.1577433  51.9062873  37.3161693  13.7300443
  38.5697923  48.6561633  14.0519413  38.1852713  48.0155303  14.6502373
  38.8810113  49.3597753  14.6214143  44.7195063  45.5038173   9.5328033
  45.0865193  45.0296743  10.2789373  44.5300123  46.3779743   9.8736373
  37.5835553  40.2481863   5.6621503  37.2982473  39.8837533   6.5000123
  37.5214413  39.5162323   5.0484643  42.5094433  44.5446813  11.8512243
  42.2051503  45.4238793  12.0762603  43.4640893  44.6046603  11.8869683
  41.0376223  48.7507803   2.4479093  40.2638483  48.2105423   2.2877813
  41.7670853  48.2314413   2.1096853  51.7964203  47.7473163   8.2405483
  52.5163323  48.2428453   7.8501593  51.5946023  47.0691053   7.5959353
  47.2574143  39.1411123   2.3834873  46.4438753  38.6424293   2.3080183
  47.0636093  39.9809373   1.9671223  47.1783003  47.8182223  14.1274483
  47.1120313  46.8977893  13.8732073  46.5488143  47.9157663  14.8419123
  41.0813623  48.4188183   6.0857903  41.5992293  47.6156443   6.0314793
  40.6297643  48.3567323   6.9274733  38.5658163  45.3849553  12.9983603
  38.2073103  46.0503403  13.5856943  38.2712723  44.5533103  13.3696223
  41.7671283  45.8433793  15.8823153  41.4671423  45.9890973  14.9850973
  42.5382523  45.2839083  15.7896543  47.1099733  50.6402793  13.8778283
  47.1244273  49.7083753  13.6597193  46.4024833  50.7262553  14.5168053
  53.3210943  47.2810133  13.2246863  52.5959133  47.8738913  13.0276253
  53.8486403  47.2733673  12.4260233  53.2724053  51.6784873   2.8759023
  52.6300213  51.0240493   3.1502743  52.8854713  52.0839963   2.0999693
  48.8510533  49.0070303   6.7230713  49.2034353  48.4098433   6.0632083
  47.9672863  48.6814533   6.8938963  44.9373813  49.7667993   4.1301123
  45.6244943  50.3137203   4.5108713  44.1506233  50.3108723   4.1650733
  44.2401023  46.7714023   3.7426483  44.6963803  47.5819273   3.9686673
  43.8889233  46.4537163   4.5744973  46.5433633  52.2820363  10.9718783
  47.1875853  52.4879743  11.6492203  46.9063073  51.5208763  10.5189633
  40.1412803  37.1151673   4.2149003  40.0127433  37.1069573   5.1633923
  39.3174823  37.4534763   3.8640013  47.8165713  50.2852713   9.6896233
  48.4587943  49.5845873   9.8028403  48.3415063  51.0651153   9.5093123
  49.5903333  51.0847613  12.8932293  49.9259573  51.6714303  13.5710213
  48.6703673  50.9540323  13.1230083  37.1406733  38.8742793  13.6755703
  36.4265253  39.0739713  14.2808313  37.5601773  38.0982363  14.0470503
  37.4279323  52.8623053  14.6622233  37.5370443  51.9217793  14.5217623
  36.7759883  53.1277803  14.0135963  45.4191913  51.1338943  16.0620353
  45.0988783  50.4148183  16.6066043  44.7450273  51.8094013  16.1356413
  48.6345513  41.3665103  11.4257153  49.0026333  40.5460313  11.7536723
  47.7743713  41.4266993  11.8412803  43.9691573  42.6007993   3.6502593
  43.2607723  43.0694333   4.0916203  44.2536053  41.9430003   4.2847783
  45.5947503  44.0204693  11.6495123  46.0932753  44.4950513  12.3146973
  45.7370453  43.0968213  11.8565153  48.0007003  39.3258653   5.0898383
  47.8774783  39.3444783   4.1407893  48.9491563  39.3737593   5.2096783
  45.0883793  54.5613953   4.3626363  45.3425293  54.5235343   3.4405733
  44.1396273  54.4347283   4.3554613  52.8014363  40.2372653  12.4923513
  52.2987963  40.9778053  12.8317323  53.6171023  40.6256653  12.1760303
  51.0936373  45.4805833   5.9384873  50.1526513  45.4956063   6.1132563
  51.4080443  44.6941793   6.3845173  53.0961953  52.6514683   7.6139133
  53.2209373  53.4745853   8.0862943  53.9627513  52.4405413   7.2663283
  40.5679483  54.7445893   7.2856263  41.3041963  54.1961353   7.5564833
  40.9520403  55.6101903   7.1462253  37.4524963  50.8119463   3.1597773
  36.5264743  51.0540603   3.1503183  37.9181393  51.6393723   3.0382523
  39.5737763  53.9291963  16.4741843  40.3750493  54.2504013  16.8877243
  39.0589583  53.5687543  17.1961753  48.4102393  50.0371833  16.4217253
  47.8040553  50.0603433  15.6813003  48.1056503  49.3054873  16.9584503
  49.8402763  53.7652123  15.0326663  50.7924513  53.6810143  14.9826903
  49.6930983  54.4293833  15.7060453  37.2935573  46.4165423  15.4177893
  37.7974593  45.8372703  15.9894123  36.5542993  46.7005653  15.9554263
  44.3473513  47.8236413  14.9513413  43.5819183  48.3921413  14.8668083
  44.5289473  47.5312623  14.0581643  51.4896863  49.5541743  15.5088433
  52.2306333  49.8917503  15.0055893  50.7269543  49.7233803  14.9558203
  39.3258653  44.5595013  16.3127963  39.3663993  44.2608883  17.2213193
  40.1804153  44.9602623  16.1535483  41.2664463  43.1387113  14.2802453
  40.7360923  42.6478063  13.6525793  41.9352533  43.5671313  13.7460383
  50.1642523  47.6056573  14.0443643  50.5783543  47.7601653  14.8934063
  49.2293523  47.7311793  14.2069423  50.6364693  44.9452733  16.0482793
  51.2185463  44.1905053  15.9603273  50.8126463  45.4760173  15.2714273
  41.7536763  40.1049483  14.3599743  41.6593633  39.4870233  13.6350613
  41.1734153  40.8315773  14.1329653  44.5198203  38.6622723  11.3927133
  44.0715503  38.6846983  10.5472683  43.8863403  38.2641743  11.9897433
  44.9257753  47.5577053  12.0139573  45.3445863  48.4009783  11.8415813
  44.0066383  47.6949093  11.7846353  47.2621653  45.2893233  13.3977413
  47.3817863  44.6934373  14.1372253  48.1215653  45.3262923  12.9778713
  49.6009553  45.8430423  11.9739923  49.0744773  46.3673043  11.3705063
  49.9440893  46.4757813  12.6049653  42.7765173  53.8630063  13.1297303
  42.2386263  54.5876123  12.8106003  43.0299133  53.3860403  12.3394643
  44.0290423  41.8314583  14.6553233  44.6190113  41.5230433  15.3431053
  43.2110663  41.3594333  14.8113133  48.8483853  41.4480393  14.8886253
  48.1599373  40.7861933  14.8236243  49.5689873  41.0018663  15.3334713
  45.6327383  55.0981273  13.3883953  45.5586083  56.0016413  13.6956323
  44.7306223  54.7793173  13.3606023  37.0354673  52.4255863   6.6917573
  37.3657683  51.5576923   6.4596213  37.4645673  52.6314383   7.5222533
  41.6316593  50.7564873   4.3519543  41.3312133  50.6329843   5.2523453
  41.5254083  49.8973463   3.9435273  37.5244883  53.2926453   9.4299203
  37.0875873  53.4727253  10.2623353  38.0922563  54.0501073   9.2880923
  53.1607063  52.7943453  13.7176513  52.5609053  52.8536013  12.9740433
  53.2900963  51.8548433  13.8473363  37.3569313  45.8046683   5.7888083
  36.7018153  45.5358323   5.1447783  38.1947263  45.6951163   5.3390063
  54.8624943  48.1358853   6.4022353  55.2333773  47.3526173   5.9958323
  55.5026873  48.8247953   6.2239653  51.8458703  49.5195433  11.8152673
  51.0318543  49.9492593  12.0778463  52.2532903  50.1313843  11.2021723
  53.8049483  45.5112113   3.7082373  53.4293083  44.7440043   3.2763663
  53.0752603  45.8934813   4.1957303  38.3945243  46.1899253  10.3291423
  38.7618283  46.1026653  11.2087443  37.8256063  45.4265803  10.2298283
  53.1949103  44.6583633  13.3421893  52.9635193  44.4296383  12.4419843
  53.4553653  45.5783183  13.2966783  37.9461243  43.1008343  14.2349843
  37.0517293  43.0675103  14.5743553  38.4858793  43.2995133  15.0001093
  51.6337173  39.8840063  16.1201593  52.5107353  39.8923463  16.5035593
  51.6458013  39.1470903  15.5093943  53.0800443  43.7369603   7.0089613
  53.6037923  43.2432253   6.3779783  53.6659863  43.8719963   7.7537183
  53.2590163  43.8209473  10.5309163  52.3092873  43.7873013  10.6454153
  53.4403173  44.7309583  10.2958933  52.5700413  42.9942953   2.9482023
  53.0659533  42.7613823   3.7330903  52.3716483  42.1554793   2.5319663
  38.4500953  37.3756673   8.5833063  39.0977143  36.8254053   8.1428223
  38.8702793  37.6299823   9.4048873  53.9987573  41.6303903   5.4819703
  53.8886853  41.4759943   6.4201973  54.7595163  41.1024843   5.2395113
  52.3453293  37.5698033  11.9402703  52.9825513  38.1832173  12.3061893
  52.4928183  37.6058693  10.9951933  51.9034753  54.2714033   5.3420943
  52.4993823  53.9498603   4.6655363  52.1612903  53.7985853   6.1334213
  38.2032953  37.5312343  11.3258383  37.8547773  37.9876163  12.0916563
  37.8720653  36.6369473  11.4080813  39.8097323  50.7031943  15.4911573
  39.7666953  50.3324853  16.3726033  39.9408333  51.6409513  15.6313393
  43.5103353  52.2591533  11.0921293  43.2694713  52.5266093  10.2051813
  44.4505993  52.4297263  11.1472153  45.7157773  38.7224223  14.8477803
  45.6546663  39.3146053  15.5973213  46.6558153  38.6150183  14.7028063
  48.3532333  38.3794283  14.4870093  48.9672743  38.6973573  13.8251173
  48.8981893  37.8942873  15.1065953  54.7707513  54.2785913  11.8931933
  54.2765793  54.6754783  11.1759063  54.1620803  53.6535123  12.2869213
  38.8753593  37.0588543  14.6009153  39.4236583  36.8776593  13.8375263
  38.9408903  36.2682653  15.1365463  39.6485353  53.6494193  12.6109353
  39.0545673  53.5178893  13.3499393  39.6409193  52.8132333  12.1451453
  49.0940373  36.9426423  10.8139383  48.2200213  37.2761533  10.6112313
  48.9851123  36.4699603  11.6391253  50.0012353  39.1497293  12.1981103
  49.6725713  38.3349053  11.8182833  50.9494653  39.1067103  12.0746793
  52.4546963  54.9209333   9.1718673  51.9949933  55.6725143   8.7976693
  51.8259423  54.2015803   9.1133473  39.2797583  51.0152573  11.5617393
  38.5531643  50.3957863  11.4943343  39.3406733  51.4093183  10.6915473
  42.8842683  53.2297573   8.3466803  43.4007703  52.6184933   7.8215063
  43.5340063  53.7326353   8.8377813  45.6238183  54.1206063   9.1735783
  45.9115993  53.8660363   8.2968793  46.1361403  53.5683423   9.7641353
  46.8415193  37.8596263   9.7532293  46.0586983  38.3341763  10.0329053
  46.5478123  36.9551093   9.6445473  51.3936263  38.5619363   7.7981383
  51.8344353  38.5064463   6.9502983  51.1243853  39.4777373   7.8691563
  53.2574833  38.1934603   5.8090203  53.1963233  37.2495823   5.6621223
  54.0366863  38.3014693   6.3543663  37.5627583  54.3326963   4.7714153
  37.3949623  53.6997643   5.4696043  36.6962093  54.5386363   4.4208343
  44.7269413  40.2783013   5.2648323  43.9143923  39.9039903   4.9244203
  45.2311053  39.5228093   5.5669513  49.2294393  36.9425463   6.5031393
  49.8323763  37.5145673   6.9779913  48.4887383  37.5064903   6.2805293
  52.3728993  37.3447023   1.7771673  52.5679623  38.2430473   2.0439103
  51.5858863  37.1134103   2.2704623  42.7518593  38.4282933   3.8693373
  42.1221333  37.7270243   4.0363503  42.2123733  39.1887063   3.6526533
  45.6910543  55.0422163  16.5403983  46.6177853  54.8066433  16.5839943
  45.6760973  55.8694163  16.0590013  53.9255603  54.5847733   3.5378233
  54.1007793  53.8985473   2.8939153  53.2277173  55.1094783   3.1454903
  42.8774153  37.7066913  16.3045863  42.5958423  38.2100513  15.5406683
  43.2593853  36.9088663  15.9387993  49.4789613  37.1220493  16.8826333
  49.3655063  37.4415103  17.7777853  50.2959353  37.5233003  16.5863613
  52.2588103  54.2692023  16.3645023  53.0513423  53.7741253  16.1570983
  52.5521253  54.9482163  16.9720633  48.3847763  26.3669473  62.3435033
  48.3041813  25.4524083  62.0726743  47.9712183  26.8636543  61.6374743
  46.5165803  28.1448493  64.2244303  45.7407903  27.6648933  64.5142873
  47.1678733  27.4654143  64.0500463  40.5331633  28.4568303  65.1020063
  39.7016513  28.2017013  65.5016573  41.1412613  28.5279073  65.8377983
  50.5373233  32.5508683  63.0043433  50.0754763  31.7795923  63.3330603
  51.3498783  32.5774753  63.5095883  40.5132893  32.4908393  65.2978083
  40.8160933  31.6006133  65.1188303  41.2576483  33.0478613  65.0700333
  38.9423583  23.4170193  58.8862453  38.0540283  23.7586163  58.7842333
  39.2264773  23.2170513  57.9943283  36.9056593  26.0175843  64.7702153
  37.4772703  25.2498043  64.7705793  36.9058133  26.3164603  63.8608763
  46.7636543  34.8366693  62.6247423  46.1447983  35.2924193  62.0541863
  47.6188323  34.9918153  62.2237123  45.9574793  30.8205683  64.2314463
  45.8883073  29.8795623  64.0703593  46.7194653  30.9107093  64.8037033
  38.1481463  21.4260203  66.5571083  37.9684303  20.5285953  66.8373843
  37.7461543  21.9732073  67.2318033  46.9879963  23.6276063  64.4583393
  47.3644783  22.7547943  64.3457063  46.8899473  23.9634763  63.5673833
  41.1184973  22.0001693  59.9200833  41.2251723  22.9005423  60.2269593
  40.2077333  21.9519663  59.6295483  50.7704083  21.1226503  61.3911733
  51.5913703  20.6323073  61.4337213  50.8038163  21.7124163  62.1443573
  38.7668133  23.9220703  65.1653423  39.4478243  24.1859073  65.7840823
  38.4516183  23.0821573  65.4991433  42.9592703  24.9688063  64.2526013
  43.4670923  25.4669033  64.8931033  43.4905943  24.1923263  64.0765373
  55.0603633  23.1393253  67.9555363  54.3555803  23.5274963  67.4370473
  55.3261553  23.8343543  68.5576293  41.2428803  19.6086623  68.5189433
  41.2447243  20.1259013  67.7135333  40.4133113  19.1316803  68.4959363
  47.6299893  29.7205933  60.0179333  47.0117163  30.1855383  59.4542053
  48.1423143  30.4133413  60.4348843  42.4931653  29.2481803  66.6962933
  42.1601033  29.8750723  67.3384003  42.6698333  29.7743683  65.9164603
  51.0065563  23.0626883  64.1639273  50.3021133  23.3511773  64.7442383
  51.3677723  23.8726993  63.8038833  40.9244133  21.3196583  66.5259883
  41.2660943  22.1638633  66.2313753  39.9859943  21.4680323  66.6425223
  41.7050753  31.2162603  68.5112113  42.3224753  31.8913683  68.2296563
  40.8443873  31.6250583  68.4199613  36.9983093  30.4062463  57.3918963
  36.6211073  30.8949563  56.6603863  37.2556163  31.0787743  58.0225493
  52.6228343  32.6802013  66.4266753  51.9391863  33.3501123  66.4183423
  53.1622633  32.8782663  65.6611613  54.0752483  22.5081673  64.5548483
  53.1277393  22.5420653  64.6863913  54.4002473  23.3220623  64.9397843
  44.6072023  18.8078853  62.8504473  44.9147003  18.2525743  62.1339973
  43.6772723  18.9423313  62.6677463  50.1587083  34.5246143  65.1411933
  50.1714243  34.1208433  64.2734193  49.6062303  35.2993433  65.0373363
  51.4532503  31.2462363  60.2302103  51.3428833  30.3036693  60.3551523
  51.4500753  31.6078003  61.1164863  49.5572523  29.4275983  66.4694543
  49.9741313  29.2136093  65.6348003  50.2812343  29.6848773  67.0403163
  46.9952783  26.8727683  59.5864593  46.0682063  26.8065063  59.8153063
  47.1477603  27.8107813  59.4719833  46.9821863  23.1444683  56.5831753
  46.0425533  23.3058643  56.6684213  47.3005123  23.8630363  56.0367743
  53.5034623  27.8263203  66.5610783  52.6753253  27.8956293  66.0860913
  54.0985103  28.4117513  66.0926613  51.0250073  28.4347983  60.0899843
  50.4062493  28.0967533  59.4426143  51.0074523  27.7907743  60.7979033
  50.4676633  24.6132523  67.5065653  50.0547813  25.4386233  67.7605643
  49.7352583  24.0277563  67.3142013  42.6009423  27.3992423  62.3684323
  42.1966423  26.6869673  61.8730223  42.6872543  27.0545663  63.2572363
  43.0691123  31.0859983  64.5323533  42.7719413  30.4805453  63.8531313
  44.0190943  31.1237293  64.4212893  41.3138043  24.1735633  66.1483363
  41.8652633  24.2830973  65.3736613  41.8281553  24.5473233  66.8638593
  51.1576733  34.6591853  68.1946633  50.6807293  35.4664043  68.0019243
  50.4738523  34.0070183  68.3472843  49.2014773  27.6734793  57.0972593
  49.6408053  26.8357223  56.9510413  49.9143193  28.3064193  57.1836733
  47.3110153  32.6130863  61.0653833  47.7506063  33.3555193  60.6509223
  47.2497043  32.8557433  61.9892793  52.7831913  18.9277603  55.4113633
  52.4704573  19.0204433  56.3112703  53.5444383  19.5058633  55.3611063
  39.3014053  26.2937403  59.8690973  39.1811653  27.0199493  59.2572243
  38.9914943  25.5240313  59.3918883  36.9399423  29.4652543  65.6759613
  37.0179843  29.6001313  64.7315333  37.5541103  28.7568433  65.8687733
  38.1847053  31.1652733  62.0865793  37.7775133  31.3067323  61.2319393
  39.0760063  30.8812893  61.8837003  48.0025933  35.3144643  68.9932843
  48.5170603  35.2252653  69.7955273  47.1595013  35.6604343  69.2860753
  49.9780333  35.5999983  58.4216843  49.8181473  35.3102923  59.3198673
  49.8127043  34.8240113  57.8862073  42.4568713  35.3798513  60.1988463
  42.2811193  34.4634053  59.9856263  41.6024453  35.7385803  60.4386263
  49.6806463  33.1087543  56.9814843  48.9871623  33.1064833  56.3217123
  50.4229323  32.6846863  56.5509013  49.2456393  34.7350253  61.0563333
  49.7013343  33.9539633  61.3701953  49.5848913  35.4457073  61.6004513
  36.9958943  30.5066713  68.2154073  37.1589983  30.0372073  67.3973443
  37.4611393  29.9990273  68.8802913  41.7677713  19.6372473  63.2514643
  41.3245863  20.4182013  62.9199163  42.3262703  19.9602363  63.9585583
  46.0547523  22.5040993  68.8549963  45.5926893  22.7124013  69.6669903
  45.6525633  21.6900343  68.5520633  44.8836533  19.2583173  58.1320473
  44.2590713  19.2543043  58.8573783  44.7966653  18.3914133  57.7356443
  43.8053613  20.1819803  65.1104243  44.1025943  21.0882633  65.0296263
  44.3539173  19.6938583  64.4963813  41.5591933  24.7606043  60.9795893
  41.3332853  24.5443213  61.8842513  40.7784463  25.1934503  60.6341863
  48.7889693  24.7669413  59.5786543  48.1898583  25.4905213  59.3950163
  49.3369303  24.7046193  58.7962993  47.3954563  23.4032953  61.6089823
  47.7884133  23.7205153  60.7958513  47.7571413  22.5244833  61.7234343
  36.4318733  19.9933753  63.8320023  36.1431783  20.5636613  64.5445003
  37.1764493  19.5138203  64.1951253  36.6188963  23.9353873  55.0422743
  36.5363633  24.8784633  55.1837733  36.2672023  23.7928783  54.1635093
  47.9809703  25.9938703  65.7040603  47.2490823  26.5025513  66.0530703
  47.5834043  25.1768683  65.4029383  44.4187093  22.6692903  64.1093093
  44.4223153  22.2282853  63.2597633  45.3138213  22.9910233  64.2164913
  40.2689473  22.5519393  63.0687303  39.9289523  23.0294623  63.8254353
  39.5066793  22.0984513  62.7088403  44.4807243  23.6704983  57.0999853
  44.6020063  23.6291463  58.0485673  44.0955753  24.5329133  56.9446583
  48.4435613  21.4472383  65.1163543  48.4608353  21.8981033  65.9605393
  48.1951193  20.5478023  65.3296983  43.4928743  25.9806123  56.4983153
  42.9245643  25.5324373  55.8719063  44.2017743  26.3398903  55.9648303
  44.7195063  26.7294683  65.8558503  45.0865193  26.2553253  66.6019843
  44.5300123  27.6036253  66.1966843  37.5835553  21.4738373  61.9851973
  37.2982473  21.1094043  62.8230593  37.5214413  20.7418833  61.3715113
  42.5094433  25.7703323  68.1742713  42.2051503  26.6495303  68.3993073
  43.4640893  25.8303113  68.2100153  41.0376223  29.9764313  58.7709563
  40.2638483  29.4361933  58.6108283  41.7670853  29.4570923  58.4327323
  51.7964203  28.9729673  64.5635953  52.5163323  29.4684963  64.1732063
  51.5946023  28.2947563  63.9189823  47.2574143  20.3667633  58.7065343
  46.4438753  19.8680803  58.6310653  47.0636093  21.2065883  58.2901693
  49.9722533  24.7387283  57.0027503  50.8602153  25.0504513  56.8278843
  49.9427623  23.8659533  56.6108083  41.0813623  29.6444693  62.4088373
  41.5992293  28.8412953  62.3545263  40.6297643  29.5823833  63.2505203
  45.9683123  30.9110973  57.6815673  46.3098823  31.6553203  57.1858993
  45.1395833  31.2242093  58.0440503  52.2436803  26.0499123  56.4707363
  52.1600523  26.4813343  55.6203803  52.9630993  26.5097473  56.9034183
  53.3210943  28.5066643  69.5477333  52.5959133  29.0995423  69.3506723
  53.8486403  28.4990183  68.7490703  53.2724053  32.9041383  59.1989493
  52.6300213  32.2497003  59.4733213  52.8854713  33.3096473  58.4230163
  48.8510533  30.2326813  63.0461183  49.2034353  29.6354943  62.3862553
  47.9672863  29.9071043  63.2169433  44.9373813  30.9924503  60.4531593
  45.6244943  31.5393713  60.8339183  44.1506233  31.5365233  60.4881203
  37.0766213  26.6097323  55.9448673  37.9461063  26.8922123  56.2284593
  36.5856533  27.4233193  55.8297483  44.2401023  27.9970533  60.0656953
  44.6963803  28.8075783  60.2917143  43.8889233  27.6793673  60.8975443
  46.5433633  33.5076873  67.2949253  47.1875853  33.7136253  67.9722673
  46.9063073  32.7465273  66.8420103  40.1412803  18.3408183  60.5379473
  40.0127433  18.3326083  61.4864393  39.3174823  18.6791273  60.1870483
  47.8165713  31.5109223  66.0126703  48.4587943  30.8102383  66.1258873
  48.3415063  32.2907663  65.8323593  51.6621433  31.7957843  55.7365843
  51.4359013  31.0788283  56.3290483  51.2717633  31.5470283  54.8987593
  37.4437463  35.8224703  56.5110303  37.8035103  36.4214043  55.8567573
  37.3029803  36.3684593  57.2845333  51.2437683  29.7129783  57.3980003
  50.9559383  30.1742473  58.1857883  52.0389853  29.2527553  57.6664223
  43.4606083  33.2055903  57.3283973  43.4516183  33.9385593  56.7128483
  42.5404443  32.9587483  57.4210933  39.0612723  28.4270793  58.0730733
  38.4540673  29.1669693  58.0826033  39.5362073  28.5170153  57.2468933
  48.6345513  22.5921613  67.7487623  49.0026333  21.7716823  68.0767193
  47.7743713  22.6523503  68.1643273  52.0007543  21.5478553  58.5575183
  51.3720703  21.6524223  57.8433413  51.5059463  21.7675333  59.3469063
  46.4465683  33.2684143  55.9909163  46.5477663  33.0648133  55.0611143
  45.5467423  33.0142423  56.1956943  43.9691573  23.8264503  59.9733063
  43.2607723  24.2950843  60.4146673  44.2536053  23.1686513  60.6078253
  45.5947503  25.2461203  67.9725593  46.0932753  25.7207023  68.6377443
  45.7370453  24.3224723  68.1795623  48.0007003  20.5515163  61.4128853
  47.8774783  20.5701293  60.4638363  48.9491563  20.5994103  61.5327253
  45.0883793  35.7870463  60.6856833  45.3425293  35.7491853  59.7636203
  44.1396273  35.6603793  60.6785083  42.1726593  22.1349583  57.3483773
  43.0217123  22.5719733  57.2823963  41.8057863  22.4469843  58.1755833
  52.8014363  21.4629163  68.8153983  52.2987963  22.2034563  69.1547793
  53.6171023  21.8513163  68.4990773  51.0936373  26.7062343  62.2615343
  50.1526513  26.7212573  62.4363033  51.4080443  25.9198303  62.7075643
  41.0718013  28.3881943  55.8219303  41.8381283  28.2763303  56.3844733
  41.1492703  27.6919913  55.1696073  39.7664773  25.8207013  56.5052193
  39.8468363  24.8734523  56.6169593  40.6584523  26.1513893  56.6112853
  53.0961953  33.8771193  63.9369603  53.2209373  34.7002363  64.4093413
  53.9627513  33.6661923  63.5893753  40.5679483  35.9702403  63.6086733
  41.3041963  35.4217863  63.8795303  40.9520403  36.8358413  63.4692723
  37.4524963  32.0375973  59.4828243  36.5264743  32.2797113  59.4733653
  37.9181393  32.8650233  59.3612993  43.6781793  35.1432713  55.4312303
  44.4710403  35.4321543  54.9794093  43.1586143  34.7124883  54.7524783
  52.7311963  34.3702843  56.8549043  52.4453473  33.9567983  56.0403223
  52.5331513  35.2990553  56.7349563  44.1959193  30.3636123  55.2954653
  44.0909833  29.7488473  56.0216033  44.0283413  29.8402013  54.5117663
  47.4361923  29.4256153  55.8996643  46.8872023  29.8725453  56.5439383
  48.0581183  28.9205403  56.4234313  43.1037043  28.3847073  57.7961943
  43.5253463  28.2186943  58.6393333  43.2287883  27.5747303  57.3017083
  45.6164683  27.4084683  55.0439043  46.1370343  26.6933703  54.6780193
  46.2633083  28.0470553  55.3439553  44.5198203  19.8879233  67.7157603
  44.0715503  19.9103493  66.8703153  43.8863403  19.4898253  68.3127903
  44.9257753  28.7833563  68.3370043  45.3445863  29.6266293  68.1646283
  44.0066383  28.9205603  68.1076823  49.6009553  27.0686933  68.2970393
  49.0744773  27.5929553  67.6935533  49.9440893  27.7014323  68.9280123
  41.9995943  24.4580303  54.7420103  41.7985003  23.5947663  55.1033443
  41.8287993  24.3713663  53.8041703  42.7765173  35.0886573  69.4527773
  42.2386263  35.8132633  69.1336473  43.0299133  34.6116913  68.6625113
  49.4784253  19.2688533  57.2706983  49.7586543  18.4256433  57.6266403
  48.7049983  19.5011643  57.7845733  40.7978743  21.5580923  54.7297983
  41.1004643  21.5648353  53.8217133  41.5373333  21.2078783  55.2265643
  44.0163673  20.5015543  55.7154183  43.6685673  19.8239533  55.1356633
  44.2176443  20.0405053  56.5297573  46.1812713  35.4896293  57.3340783
  47.0763503  35.8281263  57.3559543  46.2130343  34.7675703  56.7065063
  39.8208873  30.8623343  55.5627783  40.2583743  31.4053013  56.2185363
  40.3056603  30.0370293  55.5724123  37.0354673  33.6512373  63.0148043
  37.3657683  32.7833433  62.7826683  37.4645673  33.8570893  63.8453003
  41.6316593  31.9821383  60.6750013  41.3312133  31.8586353  61.5753923
  41.5254083  31.1229973  60.2665743  37.5244883  34.5182963  65.7529673
  37.0875873  34.6983763  66.5853823  38.0922563  35.2757583  65.6111393
  54.4008513  31.7617783  55.3776693  53.5701473  31.8294433  55.8483923
  54.5780343  32.6521903  55.0743553  53.8564973  28.5065263  57.8810893
  54.6183883  29.0761913  57.9870583  53.8719343  27.9392463  58.6519203
  37.3569313  27.0303193  62.1118553  36.7018153  26.7614833  61.4678253
  38.1947263  26.9207673  61.6620533  54.8624943  29.3615363  62.7252823
  55.2333773  28.5782683  62.3188793  55.5026873  30.0504463  62.5470123
  51.8458703  30.7451943  68.1383143  51.0318543  31.1749103  68.4008933
  52.2532903  31.3570353  67.5252193  53.9084143  28.7999633  55.0383413
  54.1832983  29.7078513  54.9102633  53.7194883  28.7362163  55.9745403
  50.3059753  21.8244483  56.3337043  50.7244633  21.6375463  55.4933703
  49.9995813  20.9723533  56.6439973  53.8049483  26.7368623  60.0312843
  53.4293083  25.9696553  59.5994133  53.0752603  27.1191323  60.5187773
  38.3945243  27.4155763  66.6521893  38.7618283  27.3283163  67.5317913
  37.8256063  26.6522313  66.5528753  53.1949103  25.8840143  69.6652363
  52.9635193  25.6552893  68.7650313  53.4553653  26.8039693  69.6197253
  36.5707393  24.2402123  58.0543883  35.6671473  24.5032323  57.8795543
  37.0548013  24.5113293  57.2743843  53.0800443  24.9626113  63.3320083
  53.6037923  24.4688763  62.7010253  53.6659863  25.0976473  64.0767653
  53.2590163  25.0465983  66.8539633  52.3092873  25.0129523  66.9684623
  53.4403173  25.9566093  66.6189403  39.1134603  23.2967663  55.9638263
  39.8226303  22.8750883  55.4785543  38.3974543  23.3642893  55.3321613
  38.7608763  19.3506993  55.0040913  39.4836893  19.8915933  55.3222133
  39.0333283  19.0770413  54.1282453  52.5700413  24.2199463  59.2712493
  53.0659533  23.9870333  60.0561373  52.3716483  23.3811303  58.8550133
  38.4500953  18.6013183  64.9063533  39.0977143  18.0510563  64.4658693
  38.8702793  18.8556333  65.7279343  53.9987573  22.8560413  61.8050173
  53.8886853  22.7016453  62.7432443  54.7595163  22.3281353  61.5625583
  52.3453293  18.7954543  68.2633173  52.9825513  19.4088683  68.6292363
  52.4928183  18.8315203  67.3182403  54.8877843  20.6868333  55.0456313
  55.8127153  20.5549513  54.8374603  54.8653633  20.7661153  55.9992763
  54.9616333  21.4578993  57.6713023  54.1667833  21.3924113  58.2005933
  55.1659613  22.3929633  57.6598373  51.9034753  35.4970543  61.6651413
  52.4993823  35.1755113  60.9885833  52.1612903  35.0242363  62.4564683
  38.2032953  18.7568853  67.6488853  37.8547773  19.2132673  68.4147033
  37.8720653  17.8625983  67.7311283  43.5103353  33.4848043  67.4151763
  43.2694713  33.7522603  66.5282283  44.4505993  33.6553773  67.4702623
  54.7707513  35.5042423  68.2162403  54.2765793  35.9011293  67.4989533
  54.1620803  34.8791633  68.6099683  39.6485353  34.8750703  68.9339823
  39.0545673  34.7435403  69.6729863  39.6409193  34.0388843  68.4681923
  49.0940373  18.1682933  67.1369853  48.2200213  18.5018043  66.9342783
  48.9851123  17.6956113  67.9621723  50.0012353  20.3753803  68.5211573
  49.6725713  19.5605563  68.1413303  50.9494653  20.3323613  68.3977263
  52.4546963  36.1465843  65.4949143  51.9949933  36.8981653  65.1207163
  51.8259423  35.4272313  65.4363943  39.2797583  32.2409083  67.8847863
  38.5531643  31.6214373  67.8173813  39.3406733  32.6349693  67.0145943
  42.8842683  34.4554083  64.6697273  43.4007703  33.8441443  64.1445533
  43.5340063  34.9582863  65.1608283  45.6238183  35.3462573  65.4966253
  45.9115993  35.0916873  64.6199263  46.1361403  34.7939933  66.0871823
  46.8415193  19.0852773  66.0762763  46.0586983  19.5598273  66.3559523
  46.5478123  18.1807603  65.9675943  51.3936263  19.7875873  64.1211853
  51.8344353  19.7320973  63.2733453  51.1243853  20.7033883  64.1922033
  53.2574833  19.4191113  62.1320673  53.1963233  18.4752333  61.9851693
  54.0366863  19.5271203  62.6774133  37.5627583  35.5583473  61.0944623
  37.3949623  34.9254153  61.7926513  36.6962093  35.7642873  60.7438813
  38.1855603  19.3900253  58.5976483  38.9434963  19.5029133  58.0240513
  37.7232773  20.2269453  58.5519913  44.7269413  21.5039523  61.5878793
  43.9143923  21.1296413  61.2474673  45.2311053  20.7484603  61.8899983
  49.2294393  18.1681973  62.8261863  49.8323763  18.7402183  63.3010383
  48.4887383  18.7321413  62.6035763  52.3728993  18.5703533  58.1002143
  52.5679623  19.4686983  58.3669573  51.5858863  18.3390613  58.5935093
  39.1690283  34.2516703  58.5394763  38.6437903  34.6324733  57.8356723
  39.0934863  34.8767473  59.2604473  40.5580753  19.9164303  57.1378453
  41.0873513  19.1294103  57.0086403  41.1909073  20.5955493  57.3713983
  42.7518593  19.6539443  60.1923843  42.1221333  18.9526753  60.3593973
  42.2123733  20.4143573  59.9757003  53.9255603  35.8104243  59.8608703
  54.1007793  35.1241983  59.2169623  53.2277173  36.3351293  59.4685373
  41.7683253  36.1999083  57.4144013  42.5002073  35.9158363  56.8667903
  42.0276923  35.9612363  58.3043393  40.9298043  32.3163813  57.4190343
  40.3006923  32.7848913  57.9676173  41.0445873  31.4713033  57.8536533
  48.3847763  26.3669473  43.5691543  48.3041813  25.4524083  43.2983253
  47.9712183  26.8636543  42.8631253  46.5165803  28.1448493  45.4500813
  45.7407903  27.6648933  45.7399383  47.1678733  27.4654143  45.2756973
  40.5331633  28.4568303  46.3276573  39.7016513  28.2017013  46.7273083
  41.1412613  28.5279073  47.0634493  50.5373233  32.5508683  44.2299943
  50.0754763  31.7795923  44.5587113  51.3498783  32.5774753  44.7352393
  40.5132893  32.4908393  46.5234593  40.8160933  31.6006133  46.3444813
  41.2576483  33.0478613  46.2956843  38.9423583  23.4170193  40.1118963
  38.0540283  23.7586163  40.0098843  39.2264773  23.2170513  39.2199793
  36.9056593  26.0175843  45.9958663  37.4772703  25.2498043  45.9962303
  36.9058133  26.3164603  45.0865273  46.7636543  34.8366693  43.8503933
  46.1447983  35.2924193  43.2798373  47.6188323  34.9918153  43.4493633
  45.9574793  30.8205683  45.4570973  45.8883073  29.8795623  45.2960103
  46.7194653  30.9107093  46.0293543  38.1481463  21.4260203  47.7827593
  37.9684303  20.5285953  48.0630353  37.7461543  21.9732073  48.4574543
  46.9879963  23.6276063  45.6839903  47.3644783  22.7547943  45.5713573
  46.8899473  23.9634763  44.7930343  41.1184973  22.0001693  41.1457343
  41.2251723  22.9005423  41.4526103  40.2077333  21.9519663  40.8551993
  50.7704083  21.1226503  42.6168243  51.5913703  20.6323073  42.6593723
  50.8038163  21.7124163  43.3700083  38.7668133  23.9220703  46.3909933
  39.4478243  24.1859073  47.0097333  38.4516183  23.0821573  46.7247943
  42.9592703  24.9688063  45.4782523  43.4670923  25.4669033  46.1187543
  43.4905943  24.1923263  45.3021883  55.0603633  23.1393253  49.1811873
  54.3555803  23.5274963  48.6626983  55.3261553  23.8343543  49.7832803
  41.2428803  19.6086623  49.7445943  41.2447243  20.1259013  48.9391843
  40.4133113  19.1316803  49.7215873  47.6299893  29.7205933  41.2435843
  47.0117163  30.1855383  40.6798563  48.1423143  30.4133413  41.6605353
  42.4931653  29.2481803  47.9219443  42.1601033  29.8750723  48.5640513
  42.6698333  29.7743683  47.1421113  51.0065563  23.0626883  45.3895783
  50.3021133  23.3511773  45.9698893  51.3677723  23.8726993  45.0295343
  40.9244133  21.3196583  47.7516393  41.2660943  22.1638633  47.4570263
  39.9859943  21.4680323  47.8681733  41.7050753  31.2162603  49.7368623
  42.3224753  31.8913683  49.4553073  40.8443873  31.6250583  49.6456123
  36.9983093  30.4062463  38.6175473  36.6211073  30.8949563  37.8860373
  37.2556163  31.0787743  39.2482003  52.6228343  32.6802013  47.6523263
  51.9391863  33.3501123  47.6439933  53.1622633  32.8782663  46.8868123
  54.0752483  22.5081673  45.7804993  53.1277393  22.5420653  45.9120423
  54.4002473  23.3220623  46.1654353  44.6072023  18.8078853  44.0760983
  44.9147003  18.2525743  43.3596483  43.6772723  18.9423313  43.8933973
  50.1587083  34.5246143  46.3668443  50.1714243  34.1208433  45.4990703
  49.6062303  35.2993433  46.2629873  51.4532503  31.2462363  41.4558613
  51.3428833  30.3036693  41.5808033  51.4500753  31.6078003  42.3421373
  49.5572523  29.4275983  47.6951053  49.9741313  29.2136093  46.8604513
  50.2812343  29.6848773  48.2659673  46.9952783  26.8727683  40.8121103
  46.0682063  26.8065063  41.0409573  47.1477603  27.8107813  40.6976343
  46.9821863  23.1444683  37.8088263  46.0425533  23.3058643  37.8940723
  47.3005123  23.8630363  37.2624253  53.5034623  27.8263203  47.7867293
  52.6753253  27.8956293  47.3117423  54.0985103  28.4117513  47.3183123
  51.0250073  28.4347983  41.3156353  50.4062493  28.0967533  40.6682653
  51.0074523  27.7907743  42.0235543  50.4676633  24.6132523  48.7322163
  50.0547813  25.4386233  48.9862153  49.7352583  24.0277563  48.5398523
  42.6009423  27.3992423  43.5940833  42.1966423  26.6869673  43.0986733
  42.6872543  27.0545663  44.4828873  43.0691123  31.0859983  45.7580043
  42.7719413  30.4805453  45.0787823  44.0190943  31.1237293  45.6469403
  41.3138043  24.1735633  47.3739873  41.8652633  24.2830973  46.5993123
  41.8281553  24.5473233  48.0895103  51.1576733  34.6591853  49.4203143
  50.6807293  35.4664043  49.2275753  50.4738523  34.0070183  49.5729353
  42.1609553  30.8241673  52.4087843  41.2638083  31.0481643  52.6561243
  42.1862423  30.9476613  51.4599243  49.2014773  27.6734793  38.3229103
  49.6408053  26.8357223  38.1766923  49.9143193  28.3064193  38.4093243
  40.9880773  27.6954993  50.9845213  40.8488543  28.5677793  51.3532613
  40.1062133  27.3527803  50.8393153  47.3110153  32.6130863  42.2910343
  47.7506063  33.3555193  41.8765733  47.2497043  32.8557433  43.2149303
  42.7861123  33.6376693  53.1930363  42.7576553  34.0419643  52.3258793
  42.6226093  32.7087053  53.0301963  52.7831913  18.9277603  36.6370143
  52.4704573  19.0204433  37.5369213  53.5444383  19.5058633  36.5867573
  39.3014053  26.2937403  41.0947483  39.1811653  27.0199493  40.4828753
  38.9914943  25.5240313  40.6175393  54.7375943  34.4203793  54.4894533
  55.2135663  34.8986683  55.1683613  55.3583103  34.3521283  53.7640033
  36.9399423  29.4652543  46.9016123  37.0179843  29.6001313  45.9571843
  37.5541103  28.7568433  47.0944243  38.1847053  31.1652733  43.3122303
  37.7775133  31.3067323  42.4575903  39.0760063  30.8812893  43.1093513
  54.1409193  31.6116643  51.6494543  54.2672253  31.3728523  50.7311723
  54.1830573  30.7801183  52.1216623  48.0025933  35.3144643  50.2189353
  48.5170603  35.2252653  51.0211783  47.1595013  35.6604343  50.5117263
  49.9780333  35.5999983  39.6473353  49.8181473  35.3102923  40.5455183
  49.8127043  34.8240113  39.1118583  42.4568713  35.3798513  41.4244973
  42.2811193  34.4634053  41.2112773  41.6024453  35.7385803  41.6642773
  49.6806463  33.1087543  38.2071353  48.9871623  33.1064833  37.5473633
  50.4229323  32.6846863  37.7765523  49.2456393  34.7350253  42.2819843
  49.7013343  33.9539633  42.5958463  49.5848913  35.4457073  42.8261023
  53.9933203  23.6649103  52.6144283  53.3777473  24.1728773  52.0859743
  53.6729623  22.7647433  52.5570223  36.9958943  30.5066713  49.4410583
  37.1589983  30.0372073  48.6229953  37.4611393  29.9990273  50.1059423
  41.7677713  19.6372473  44.4771153  41.3245863  20.4182013  44.1455673
  42.3262703  19.9602363  45.1842093  46.0547523  22.5040993  50.0806473
  45.5926893  22.7124013  50.8926413  45.6525633  21.6900343  49.7777143
  51.0552033  23.7249943  51.2103133  50.2045623  23.4255693  51.5312203
  50.8953823  23.9691953  50.2986953  48.1501743  25.2251693  53.3101923
  48.4755153  24.3915443  52.9704153  48.9382073  25.7480213  53.4580253
  44.8836533  19.2583173  39.3576983  44.2590713  19.2543043  40.0830293
  44.7966653  18.3914133  38.9612953  43.8053613  20.1819803  46.3360753
  44.1025943  21.0882633  46.2552773  44.3539173  19.6938583  45.7220323
  41.5591933  24.7606043  42.2052403  41.3332853  24.5443213  43.1099023
  40.7784463  25.1934503  41.8598373  48.7889693  24.7669413  40.8043053
  48.1898583  25.4905213  40.6206673  49.3369303  24.7046193  40.0219503
  43.9991143  25.6591623  52.8712673  43.9034743  24.7186353  52.7213073
  44.8423123  25.8806693  52.4760743  47.3954563  23.4032953  42.8346333
  47.7884133  23.7205153  42.0215023  47.7571413  22.5244833  42.9490853
  39.1301683  22.0705293  51.0246453  38.7365073  22.9180503  51.2319233
  38.4420083  21.4331663  51.2155093  45.7046733  22.1540263  54.0943193
  45.0145053  21.9612463  54.7289283  46.4479033  22.4374903  54.6267493
  36.4318733  19.9933753  45.0576533  36.1431783  20.5636613  45.7701513
  37.1764493  19.5138203  45.4207763  36.6188963  23.9353873  36.2679253
  36.5363633  24.8784633  36.4094243  36.2672023  23.7928783  35.3891603
  47.9809703  25.9938703  46.9297113  47.2490823  26.5025513  47.2787213
  47.5834043  25.1768683  46.6285893  44.4187093  22.6692903  45.3349603
  44.4223153  22.2282853  44.4854143  45.3138213  22.9910233  45.4421423
  40.2689473  22.5519393  44.2943813  39.9289523  23.0294623  45.0510863
  39.5066793  22.0984513  43.9344913  44.4807243  23.6704983  38.3256363
  44.6020063  23.6291463  39.2742183  44.0955753  24.5329133  38.1703093
  48.4435613  21.4472383  46.3420053  48.4608353  21.8981033  47.1861903
  48.1951193  20.5478023  46.5553493  43.4928743  25.9806123  37.7239663
  42.9245643  25.5324373  37.0975573  44.2017743  26.3398903  37.1904813
  51.8706363  18.8604563  52.1806433  52.1952133  18.1294223  52.7064413
  51.9062873  18.5418203  51.2787423  38.5697923  29.8818143  51.6006393
  38.1852713  29.2411813  52.1989353  38.8810113  30.5854263  52.1701123
  44.7195063  26.7294683  47.0815013  45.0865193  26.2553253  47.8276353
  44.5300123  27.6036253  47.4223353  37.5835553  21.4738373  43.2108483
  37.2982473  21.1094043  44.0487103  37.5214413  20.7418833  42.5971623
  42.5094433  25.7703323  49.3999223  42.2051503  26.6495303  49.6249583
  43.4640893  25.8303113  49.4356663  41.0376223  29.9764313  39.9966073
  40.2638483  29.4361933  39.8364793  41.7670853  29.4570923  39.6583833
  51.7964203  28.9729673  45.7892463  52.5163323  29.4684963  45.3988573
  51.5946023  28.2947563  45.1446333  47.2574143  20.3667633  39.9321853
  46.4438753  19.8680803  39.8567163  47.0636093  21.2065883  39.5158203
  47.1783003  29.0438733  51.6761463  47.1120313  28.1234403  51.4219053
  46.5488143  29.1414173  52.3906103  49.9722533  24.7387283  38.2284013
  50.8602153  25.0504513  38.0535353  49.9427623  23.8659533  37.8364593
  41.0813623  29.6444693  43.6344883  41.5992293  28.8412953  43.5801773
  40.6297643  29.5823833  44.4761713  45.9683123  30.9110973  38.9072183
  46.3098823  31.6553203  38.4115503  45.1395833  31.2242093  39.2697013
  38.5658163  26.6106063  50.5470583  38.2073103  27.2759913  51.1343923
  38.2712723  25.7789613  50.9183203  41.7671283  27.0690303  53.4310133
  41.4671423  27.2147483  52.5337953  42.5382523  26.5095593  53.3383523
  47.1099733  31.8659303  51.4265263  47.1244273  30.9340263  51.2084173
  46.4024833  31.9519063  52.0655033  52.2436803  26.0499123  37.6963873
  52.1600523  26.4813343  36.8460313  52.9630993  26.5097473  38.1290693
  53.3210943  28.5066643  50.7733843  52.5959133  29.0995423  50.5763233
  53.8486403  28.4990183  49.9747213  53.2724053  32.9041383  40.4246003
  52.6300213  32.2497003  40.6989723  52.8854713  33.3096473  39.6486673
  48.8510533  30.2326813  44.2717693  49.2034353  29.6354943  43.6119063
  47.9672863  29.9071043  44.4425943  44.9373813  30.9924503  41.6788103
  45.6244943  31.5393713  42.0595693  44.1506233  31.5365233  41.7137713
  37.0766213  26.6097323  37.1705183  37.9461063  26.8922123  37.4541103
  36.5856533  27.4233193  37.0553993  44.2401023  27.9970533  41.2913463
  44.6963803  28.8075783  41.5173653  43.8889233  27.6793673  42.1231953
  46.5433633  33.5076873  48.5205763  47.1875853  33.7136253  49.1979183
  46.9063073  32.7465273  48.0676613  40.1412803  18.3408183  41.7635983
  40.0127433  18.3326083  42.7120903  39.3174823  18.6791273  41.4126993
  47.8165713  31.5109223  47.2383213  48.4587943  30.8102383  47.3515383
  48.3415063  32.2907663  47.0580103  51.6621433  31.7957843  36.9622353
  51.4359013  31.0788283  37.5546993  51.2717633  31.5470283  36.1244103
  49.5903333  32.3104123  50.4419273  49.9259573  32.8970813  51.1197193
  48.6703673  32.1796833  50.6717063  37.1406733  20.0999303  51.2242683
  36.4265253  20.2996223  51.8295293  37.5601773  19.3238873  51.5957483
  51.2437683  29.7129783  38.6236513  50.9559383  30.1742473  39.4114393
  52.0389853  29.2527553  38.8920733  37.4279323  34.0879563  52.2109213
  37.5370443  33.1474303  52.0704603  36.7759883  34.3534313  51.5622943
  45.4191913  32.3595453  53.6107333  45.0988783  31.6404693  54.1553023
  44.7450273  33.0350523  53.6843393  43.4606083  33.2055903  38.5540483
  43.4516183  33.9385593  37.9384993  42.5404443  32.9587483  38.6467443
  39.0612723  28.4270793  39.2987243  38.4540673  29.1669693  39.3082543
  39.5362073  28.5170153  38.4725443  48.6345513  22.5921613  48.9744133
  49.0026333  21.7716823  49.3023703  47.7743713  22.6523503  49.3899783
  52.0007543  21.5478553  39.7831693  51.3720703  21.6524223  39.0689923
  51.5059463  21.7675333  40.5725573  46.4465683  33.2684143  37.2165673
  46.5477663  33.0648133  36.2867653  45.5467423  33.0142423  37.4213453
  43.9691573  23.8264503  41.1989573  43.2607723  24.2950843  41.6403183
  44.2536053  23.1686513  41.8334763  45.5947503  25.2461203  49.1982103
  46.0932753  25.7207023  49.8633953  45.7370453  24.3224723  49.4052133
  48.0007003  20.5515163  42.6385363  47.8774783  20.5701293  41.6894873
  48.9491563  20.5994103  42.7583763  45.0883793  35.7870463  41.9113343
  45.3425293  35.7491853  40.9892713  44.1396273  35.6603793  41.9041593
  42.1726593  22.1349583  38.5740283  43.0217123  22.5719733  38.5080473
  41.8057863  22.4469843  39.4012343  52.8014363  21.4629163  50.0410493
  52.2987963  22.2034563  50.3804303  53.6171023  21.8513163  49.7247283
  51.0936373  26.7062343  43.4871853  50.1526513  26.7212573  43.6619543
  51.4080443  25.9198303  43.9332153  41.0718013  28.3881943  37.0475813
  41.8381283  28.2763303  37.6101243  41.1492703  27.6919913  36.3952583
  39.7664773  25.8207013  37.7308703  39.8468363  24.8734523  37.8426103
  40.6584523  26.1513893  37.8369363  53.0961953  33.8771193  45.1626113
  53.2209373  34.7002363  45.6349923  53.9627513  33.6661923  44.8150263
  40.5679483  35.9702403  44.8343243  41.3041963  35.4217863  45.1051813
  40.9520403  36.8358413  44.6949233  37.4524963  32.0375973  40.7084753
  36.5264743  32.2797113  40.6990163  37.9181393  32.8650233  40.5869503
  39.5737763  35.1548473  54.0228823  40.3750493  35.4760523  54.4364223
  39.0589583  34.7944053  54.7448733  43.6781793  35.1432713  36.6568813
  44.4710403  35.4321543  36.2050603  43.1586143  34.7124883  35.9781293
  48.4102393  31.2628343  53.9704233  47.8040553  31.2859943  53.2299983
  48.1056503  30.5311383  54.5071483  49.8402763  34.9908633  52.5813643
  50.7924513  34.9066653  52.5313883  49.6930983  35.6550343  53.2547433
  52.7311963  34.3702843  38.0805553  52.4453473  33.9567983  37.2659733
  52.5331513  35.2990553  37.9606073  37.2935573  27.6421933  52.9664873
  37.7974593  27.0629213  53.5381103  36.5542993  27.9262163  53.5041243
  44.1959193  30.3636123  36.5211163  44.0909833  29.7488473  37.2472543
  44.0283413  29.8402013  35.7374173  44.3473513  29.0492923  52.5000393
  43.5819183  29.6177923  52.4155063  44.5289473  28.7569133  51.6068623
  47.4361923  29.4256153  37.1253153  46.8872023  29.8725453  37.7695893
  48.0581183  28.9205403  37.6490823  51.4896863  30.7798253  53.0575413
  52.2306333  31.1174013  52.5542873  50.7269543  30.9490313  52.5045183
  39.3258653  25.7851523  53.8614943  39.3663993  25.4865393  54.7700173
  40.1804153  26.1859133  53.7022463  43.1037043  28.3847073  39.0218453
  43.5253463  28.2186943  39.8649843  43.2287883  27.5747303  38.5273593
  41.2664463  24.3643623  51.8289433  40.7360923  23.8734573  51.2012773
  41.9352533  24.7927823  51.2947363  45.6164683  27.4084683  36.2695553
  46.1370343  26.6933703  35.9036703  46.2633083  28.0470553  36.5696063
  50.1642523  28.8313083  51.5930623  50.5783543  28.9858163  52.4421043
  49.2293523  28.9568303  51.7556403  50.6364693  26.1709243  53.5969773
  51.2185463  25.4161563  53.5090253  50.8126463  26.7016683  52.8201253
  41.7536763  21.3305993  51.9086723  41.6593633  20.7126743  51.1837593
  41.1734153  22.0572283  51.6816633  44.5198203  19.8879233  48.9414113
  44.0715503  19.9103493  48.0959663  43.8863403  19.4898253  49.5384413
  44.9257753  28.7833563  49.5626553  45.3445863  29.6266293  49.3902793
  44.0066383  28.9205603  49.3333333  47.2621653  26.5149743  50.9464393
  47.3817863  25.9190883  51.6859233  48.1215653  26.5519433  50.5265693
  49.6009553  27.0686933  49.5226903  49.0744773  27.5929553  48.9192043
  49.9440893  27.7014323  50.1536633  41.9995943  24.4580303  35.9676613
  41.7985003  23.5947663  36.3289953  41.8287993  24.3713663  35.0298213
  42.7765173  35.0886573  50.6784283  42.2386263  35.8132633  50.3592983
  43.0299133  34.6116913  49.8881623  44.0290423  23.0571093  52.2040213
  44.6190113  22.7486943  52.8918033  43.2110663  22.5850843  52.3600113
  48.8483853  22.6736903  52.4373233  48.1599373  22.0118443  52.3723223
  49.5689873  22.2275173  52.8821693  49.4784253  19.2688533  38.4963493
  49.7586543  18.4256433  38.8522913  48.7049983  19.5011643  39.0102243
  40.7978743  21.5580923  35.9554493  41.1004643  21.5648353  35.0473643
  41.5373333  21.2078783  36.4522153  45.6327383  36.3237783  50.9370933
  45.5586083  37.2272923  51.2443303  44.7306223  36.0049683  50.9093003
  44.0163673  20.5015543  36.9410693  43.6685673  19.8239533  36.3613143
  44.2176443  20.0405053  37.7554083  46.1812713  35.4896293  38.5597293
  47.0763503  35.8281263  38.5816053  46.2130343  34.7675703  37.9321573
  39.8208873  30.8623343  36.7884293  40.2583743  31.4053013  37.4441873
  40.3056603  30.0370293  36.7980633  37.0354673  33.6512373  44.2404553
  37.3657683  32.7833433  44.0083193  37.4645673  33.8570893  45.0709513
  41.6316593  31.9821383  41.9006523  41.3312133  31.8586353  42.8010433
  41.5254083  31.1229973  41.4922253  37.5244883  34.5182963  46.9786183
  37.0875873  34.6983763  47.8110333  38.0922563  35.2757583  46.8367903
  53.1607063  34.0199963  51.2663493  52.5609053  34.0792523  50.5227413
  53.2900963  33.0804943  51.3960343  54.4008513  31.7617783  36.6033203
  53.5701473  31.8294433  37.0740433  54.5780343  32.6521903  36.3000063
  53.8564973  28.5065263  39.1067403  54.6183883  29.0761913  39.2127093
  53.8719343  27.9392463  39.8775713  37.3569313  27.0303193  43.3375063
  36.7018153  26.7614833  42.6934763  38.1947263  26.9207673  42.8877043
  54.8624943  29.3615363  43.9509333  55.2333773  28.5782683  43.5445303
  55.5026873  30.0504463  43.7726633  51.8458703  30.7451943  49.3639653
  51.0318543  31.1749103  49.6265443  52.2532903  31.3570353  48.7508703
  53.9084143  28.7999633  36.2639923  54.1832983  29.7078513  36.1359143
  53.7194883  28.7362163  37.2001913  50.3059753  21.8244483  37.5593553
  50.7244633  21.6375463  36.7190213  49.9995813  20.9723533  37.8696483
  53.8049483  26.7368623  41.2569353  53.4293083  25.9696553  40.8250643
  53.0752603  27.1191323  41.7444283  38.3945243  27.4155763  47.8778403
  38.7618283  27.3283163  48.7574423  37.8256063  26.6522313  47.7785263
  53.1949103  25.8840143  50.8908873  52.9635193  25.6552893  49.9906823
  53.4553653  26.8039693  50.8453763  37.9461243  24.3264853  51.7836823
  37.0517293  24.2931613  52.1230533  38.4858793  24.5251643  52.5488073
  51.6337173  21.1096573  53.6688573  52.5107353  21.1179973  54.0522573
  51.6458013  20.3727413  53.0580923  36.5707393  24.2402123  39.2800393
  35.6671473  24.5032323  39.1052053  37.0548013  24.5113293  38.5000353
  53.0800443  24.9626113  44.5576593  53.6037923  24.4688763  43.9266763
  53.6659863  25.0976473  45.3024163  53.2590163  25.0465983  48.0796143
  52.3092873  25.0129523  48.1941133  53.4403173  25.9566093  47.8445913
  39.1134603  23.2967663  37.1894773  39.8226303  22.8750883  36.7042053
  38.3974543  23.3642893  36.5578123  38.7608763  19.3506993  36.2297423
  39.4836893  19.8915933  36.5478643  39.0333283  19.0770413  35.3538963
  52.5700413  24.2199463  40.4969003  53.0659533  23.9870333  41.2817883
  52.3716483  23.3811303  40.0806643  38.4500953  18.6013183  46.1320043
  39.0977143  18.0510563  45.6915203  38.8702793  18.8556333  46.9535853
  53.9987573  22.8560413  43.0306683  53.8886853  22.7016453  43.9688953
  54.7595163  22.3281353  42.7882093  52.3453293  18.7954543  49.4889683
  52.9825513  19.4088683  49.8548873  52.4928183  18.8315203  48.5438913
  54.8877843  20.6868333  36.2712823  55.8127153  20.5549513  36.0631113
  54.8653633  20.7661153  37.2249273  54.9616333  21.4578993  38.8969533
  54.1667833  21.3924113  39.4262443  55.1659613  22.3929633  38.8854883
  51.9034753  35.4970543  42.8907923  52.4993823  35.1755113  42.2142343
  52.1612903  35.0242363  43.6821193  38.2032953  18.7568853  48.8745363
  37.8547773  19.2132673  49.6403543  37.8720653  17.8625983  48.9567793
  39.8097323  31.9288453  53.0398553  39.7666953  31.5581363  53.9213013
  39.9408333  32.8666023  53.1800373  43.5103353  33.4848043  48.6408273
  43.2694713  33.7522603  47.7538793  44.4505993  33.6553773  48.6959133
  45.7157773  19.9480733  52.3964783  45.6546663  20.5402563  53.1460193
  46.6558153  19.8406693  52.2515043  48.3532333  19.6050793  52.0357073
  48.9672743  19.9230083  51.3738153  48.8981893  19.1199383  52.6552933
  54.7707513  35.5042423  49.4418913  54.2765793  35.9011293  48.7246043
  54.1620803  34.8791633  49.8356193  38.8753593  18.2845053  52.1496133
  39.4236583  18.1033103  51.3862243  38.9408903  17.4939163  52.6852443
  39.6485353  34.8750703  50.1596333  39.0545673  34.7435403  50.8986373
  39.6409193  34.0388843  49.6938433  49.0940373  18.1682933  48.3626363
  48.2200213  18.5018043  48.1599293  48.9851123  17.6956113  49.1878233
  50.0012353  20.3753803  49.7468083  49.6725713  19.5605563  49.3669813
  50.9494653  20.3323613  49.6233773  52.4546963  36.1465843  46.7205653
  51.9949933  36.8981653  46.3463673  51.8259423  35.4272313  46.6620453
  39.2797583  32.2409083  49.1104373  38.5531643  31.6214373  49.0430323
  39.3406733  32.6349693  48.2402453  42.8842683  34.4554083  45.8953783
  43.4007703  33.8441443  45.3702043  43.5340063  34.9582863  46.3864793
  45.6238183  35.3462573  46.7222763  45.9115993  35.0916873  45.8455773
  46.1361403  34.7939933  47.3128333  46.8415193  19.0852773  47.3019273
  46.0586983  19.5598273  47.5816033  46.5478123  18.1807603  47.1932453
  51.3936263  19.7875873  45.3468363  51.8344353  19.7320973  44.4989963
  51.1243853  20.7033883  45.4178543  53.2574833  19.4191113  43.3577183
  53.1963233  18.4752333  43.2108203  54.0366863  19.5271203  43.9030643
  37.5627583  35.5583473  42.3201133  37.3949623  34.9254153  43.0183023
  36.6962093  35.7642873  41.9695323  38.1855603  19.3900253  39.8232993
  38.9434963  19.5029133  39.2497023  37.7232773  20.2269453  39.7776423
  44.7269413  21.5039523  42.8135303  43.9143923  21.1296413  42.4731183
  45.2311053  20.7484603  43.1156493  49.2294393  18.1681973  44.0518373
  49.8323763  18.7402183  44.5266893  48.4887383  18.7321413  43.8292273
  52.3728993  18.5703533  39.3258653  52.5679623  19.4686983  39.5926083
  51.5858863  18.3390613  39.8191603  40.5580753  19.9164303  38.3634963
  41.0873513  19.1294103  38.2342913  41.1909073  20.5955493  38.5970493
  42.7518593  19.6539443  41.4180353  42.1221333  18.9526753  41.5850483
  42.2123733  20.4143573  41.2013513  45.6910543  36.2678673  54.0890963
  46.6177853  36.0322943  54.1326923  45.6760973  37.0950673  53.6076993
  53.9255603  35.8104243  41.0865213  54.1007793  35.1241983  40.4426133
  53.2277173  36.3351293  40.6941883  42.8774153  18.9323423  53.8532843
  42.5958423  19.4357023  53.0893663  43.2593853  18.1345173  53.4874973
  41.7683253  36.1999083  38.6400523  42.5002073  35.9158363  38.0924413
  42.0276923  35.9612363  39.5299903  40.9298043  32.3163813  38.6446853
  40.3006923  32.7848913  39.1932683  41.0445873  31.4713033  39.0793043
  49.4789613  18.3477003  54.4313313  49.3655063  18.6671613  55.3264833
  50.2959353  18.7489513  54.1350593  52.2588103  35.4948533  53.9132003
  53.0513423  34.9997763  53.7057963  52.5521253  36.1738673  54.5207613
  48.3847763  26.3669473  24.7948053  48.3041813  25.4524083  24.5239763
  47.9712183  26.8636543  24.0887763  46.5165803  28.1448493  26.6757323
  45.7407903  27.6648933  26.9655893  47.1678733  27.4654143  26.5013483
  40.5331633  28.4568303  27.5533083  39.7016513  28.2017013  27.9529593
  41.1412613  28.5279073  28.2891003  50.5373233  32.5508683  25.4556453
  50.0754763  31.7795923  25.7843623  51.3498783  32.5774753  25.9608903
  40.5132893  32.4908393  27.7491103  40.8160933  31.6006133  27.5701323
  41.2576483  33.0478613  27.5213353  38.9423583  23.4170193  21.3375473
  38.0540283  23.7586163  21.2355353  39.2264773  23.2170513  20.4456303
  36.9056593  26.0175843  27.2215173  37.4772703  25.2498043  27.2218813
  36.9058133  26.3164603  26.3121783  46.7636543  34.8366693  25.0760443
  46.1447983  35.2924193  24.5054883  47.6188323  34.9918153  24.6750143
  45.9574793  30.8205683  26.6827483  45.8883073  29.8795623  26.5216613
  46.7194653  30.9107093  27.2550053  38.1481463  21.4260203  29.0084103
  37.9684303  20.5285953  29.2886863  37.7461543  21.9732073  29.6831053
  46.9879963  23.6276063  26.9096413  47.3644783  22.7547943  26.7970083
  46.8899473  23.9634763  26.0186853  41.1184973  22.0001693  22.3713853
  41.2251723  22.9005423  22.6782613  40.2077333  21.9519663  22.0808503
  50.7704083  21.1226503  23.8424753  51.5913703  20.6323073  23.8850233
  50.8038163  21.7124163  24.5956593  38.7668133  23.9220703  27.6166443
  39.4478243  24.1859073  28.2353843  38.4516183  23.0821573  27.9504453
  42.9592703  24.9688063  26.7039033  43.4670923  25.4669033  27.3444053
  43.4905943  24.1923263  26.5278393  55.0603633  23.1393253  30.4068383
  54.3555803  23.5274963  29.8883493  55.3261553  23.8343543  31.0089313
  41.2428803  19.6086623  30.9702453  41.2447243  20.1259013  30.1648353
  40.4133113  19.1316803  30.9472383  47.6299893  29.7205933  22.4692353
  47.0117163  30.1855383  21.9055073  48.1423143  30.4133413  22.8861863
  42.4931653  29.2481803  29.1475953  42.1601033  29.8750723  29.7897023
  42.6698333  29.7743683  28.3677623  51.0065563  23.0626883  26.6152293
  50.3021133  23.3511773  27.1955403  51.3677723  23.8726993  26.2551853
  40.9244133  21.3196583  28.9772903  41.2660943  22.1638633  28.6826773
  39.9859943  21.4680323  29.0938243  41.7050753  31.2162603  30.9625133
  42.3224753  31.8913683  30.6809583  40.8443873  31.6250583  30.8712633
  36.9983093  30.4062463  19.8431983  36.6211073  30.8949563  19.1116883
  37.2556163  31.0787743  20.4738513  52.6228343  32.6802013  28.8779773
  51.9391863  33.3501123  28.8696443  53.1622633  32.8782663  28.1124633
  54.0752483  22.5081673  27.0061503  53.1277393  22.5420653  27.1376933
  54.4002473  23.3220623  27.3910863  44.6072023  18.8078853  25.3017493
  44.9147003  18.2525743  24.5852993  43.6772723  18.9423313  25.1190483
  50.1587083  34.5246143  27.5924953  50.1714243  34.1208433  26.7247213
  49.6062303  35.2993433  27.4886383  51.4532503  31.2462363  22.6815123
  51.3428833  30.3036693  22.8064543  51.4500753  31.6078003  23.5677883
  49.5572523  29.4275983  28.9207563  49.9741313  29.2136093  28.0861023
  50.2812343  29.6848773  29.4916183  46.9952783  26.8727683  22.0377613
  46.0682063  26.8065063  22.2666083  47.1477603  27.8107813  21.9232853
  46.9821863  23.1444683  19.0344773  46.0425533  23.3058643  19.1197233
  47.3005123  23.8630363  18.4880763  53.5034623  27.8263203  29.0123803
  52.6753253  27.8956293  28.5373933  54.0985103  28.4117513  28.5439633
  51.0250073  28.4347983  22.5412863  50.4062493  28.0967533  21.8939163
  51.0074523  27.7907743  23.2492053  50.4676633  24.6132523  29.9578673
  50.0547813  25.4386233  30.2118663  49.7352583  24.0277563  29.7655033
  42.6009423  27.3992423  24.8197343  42.1966423  26.6869673  24.3243243
  42.6872543  27.0545663  25.7085383  43.0691123  31.0859983  26.9836553
  42.7719413  30.4805453  26.3044333  44.0190943  31.1237293  26.8725913
  41.3138043  24.1735633  28.5996383  41.8652633  24.2830973  27.8249633
  41.8281553  24.5473233  29.3151613  51.1576733  34.6591853  30.6459653
  50.6807293  35.4664043  30.4532263  50.4738523  34.0070183  30.7985863
  42.1609553  30.8241673  33.6344353  41.2638083  31.0481643  33.8817753
  42.1862423  30.9476613  32.6855753  49.2014773  27.6734793  19.5485613
  49.6408053  26.8357223  19.4023433  49.9143193  28.3064193  19.6349753
  40.9880773  27.6954993  32.2101723  40.8488543  28.5677793  32.5789123
  40.1062133  27.3527803  32.0649663  47.3110153  32.6130863  23.5166853
  47.7506063  33.3555193  23.1022243  47.2497043  32.8557433  24.4405813
  42.7861123  33.6376693  34.4186873  42.7576553  34.0419643  33.5515303
  42.6226093  32.7087053  34.2558473  52.7831913  18.9277603  17.8626653
  52.4704573  19.0204433  18.7625723  53.5444383  19.5058633  17.8124083
  39.3014053  26.2937403  22.3203993  39.1811653  27.0199493  21.7085263
  38.9914943  25.5240313  21.8431903  54.7375943  34.4203793  35.7151043
  55.2135663  34.8986683  36.3940123  55.3583103  34.3521283  34.9896543
  36.9399423  29.4652543  28.1272633  37.0179843  29.6001313  27.1828353
  37.5541103  28.7568433  28.3200753  38.1847053  31.1652733  24.5378813
  37.7775133  31.3067323  23.6832413  39.0760063  30.8812893  24.3350023
  54.1409193  31.6116643  32.8751053  54.2672253  31.3728523  31.9568233
  54.1830573  30.7801183  33.3473133  48.0025933  35.3144643  31.4445863
  48.5170603  35.2252653  32.2468293  47.1595013  35.6604343  31.7373773
  49.9780333  35.5999983  20.8729863  49.8181473  35.3102923  21.7711693
  49.8127043  34.8240113  20.3375093  42.4568713  35.3798513  22.6501483
  42.2811193  34.4634053  22.4369283  41.6024453  35.7385803  22.8899283
  49.6806463  33.1087543  19.4327863  48.9871623  33.1064833  18.7730143
  50.4229323  32.6846863  19.0022033  49.2456393  34.7350253  23.5076353
  49.7013343  33.9539633  23.8214973  49.5848913  35.4457073  24.0517533
  53.9933203  23.6649103  33.8400793  53.3777473  24.1728773  33.3116253
  53.6729623  22.7647433  33.7826733  36.9958943  30.5066713  30.6667093
  37.1589983  30.0372073  29.8486463  37.4611393  29.9990273  31.3315933
  41.7677713  19.6372473  25.7027663  41.3245863  20.4182013  25.3712183
  42.3262703  19.9602363  26.4098603  46.0547523  22.5040993  31.3062983
  45.5926893  22.7124013  32.1182923  45.6525633  21.6900343  31.0033653
  51.0552033  23.7249943  32.4359643  50.2045623  23.4255693  32.7568713
  50.8953823  23.9691953  31.5243463  48.1501743  25.2251693  34.5358433
  48.4755153  24.3915443  34.1960663  48.9382073  25.7480213  34.6836763
  44.8836533  19.2583173  20.5833493  44.2590713  19.2543043  21.3086803
  44.7966653  18.3914133  20.1869463  43.8053613  20.1819803  27.5617263
  44.1025943  21.0882633  27.4809283  44.3539173  19.6938583  26.9476833
  41.5591933  24.7606043  23.4308913  41.3332853  24.5443213  24.3355533
  40.7784463  25.1934503  23.0854883  48.7889693  24.7669413  22.0299563
  48.1898583  25.4905213  21.8463183  49.3369303  24.7046193  21.2476013
  43.9991143  25.6591623  34.0969183  43.9034743  24.7186353  33.9469583
  44.8423123  25.8806693  33.7017253  47.3954563  23.4032953  24.0602843
  47.7884133  23.7205153  23.2471533  47.7571413  22.5244833  24.1747363
  39.1301683  22.0705293  32.2502963  38.7365073  22.9180503  32.4575743
  38.4420083  21.4331663  32.4411603  45.7046733  22.1540263  35.3199703
  45.0145053  21.9612463  35.9545793  46.4479033  22.4374903  35.8524003
  36.4318733  19.9933753  26.2833043  36.1431783  20.5636613  26.9958023
  37.1764493  19.5138203  26.6464273  36.6188963  23.9353873  17.4935763
  36.5363633  24.8784633  17.6350753  36.2672023  23.7928783  16.6148113
  47.9809703  25.9938703  28.1553623  47.2490823  26.5025513  28.5043723
  47.5834043  25.1768683  27.8542403  44.4187093  22.6692903  26.5606113
  44.4223153  22.2282853  25.7110653  45.3138213  22.9910233  26.6677933
  40.2689473  22.5519393  25.5200323  39.9289523  23.0294623  26.2767373
  39.5066793  22.0984513  25.1601423  44.4807243  23.6704983  19.5512873
  44.6020063  23.6291463  20.4998693  44.0955753  24.5329133  19.3959603
  48.4435613  21.4472383  27.5676563  48.4608353  21.8981033  28.4118413
  48.1951193  20.5478023  27.7810003  43.4928743  25.9806123  18.9496173
  42.9245643  25.5324373  18.3232083  44.2017743  26.3398903  18.4161323
  51.8706363  18.8604563  33.4062943  52.1952133  18.1294223  33.9320923
  51.9062873  18.5418203  32.5043933  38.5697923  29.8818143  32.8262903
  38.1852713  29.2411813  33.4245863  38.8810113  30.5854263  33.3957633
  44.7195063  26.7294683  28.3071523  45.0865193  26.2553253  29.0532863
  44.5300123  27.6036253  28.6479863  37.5835553  21.4738373  24.4364993
  37.2982473  21.1094043  25.2743613  37.5214413  20.7418833  23.8228133
  42.5094433  25.7703323  30.6255733  42.2051503  26.6495303  30.8506093
  43.4640893  25.8303113  30.6613173  41.0376223  29.9764313  21.2222583
  40.2638483  29.4361933  21.0621303  41.7670853  29.4570923  20.8840343
  51.7964203  28.9729673  27.0148973  52.5163323  29.4684963  26.6245083
  51.5946023  28.2947563  26.3702843  47.2574143  20.3667633  21.1578363
  46.4438753  19.8680803  21.0823673  47.0636093  21.2065883  20.7414713
  47.1783003  29.0438733  32.9017973  47.1120313  28.1234403  32.6475563
  46.5488143  29.1414173  33.6162613  49.9722533  24.7387283  19.4540523
  50.8602153  25.0504513  19.2791863  49.9427623  23.8659533  19.0621103
  41.0813623  29.6444693  24.8601393  41.5992293  28.8412953  24.8058283
  40.6297643  29.5823833  25.7018223  45.9683123  30.9110973  20.1328693
  46.3098823  31.6553203  19.6372013  45.1395833  31.2242093  20.4953523
  38.5658163  26.6106063  31.7727093  38.2073103  27.2759913  32.3600433
  38.2712723  25.7789613  32.1439713  41.7671283  27.0690303  34.6566643
  41.4671423  27.2147483  33.7594463  42.5382523  26.5095593  34.5640033
  47.1099733  31.8659303  32.6521773  47.1244273  30.9340263  32.4340683
  46.4024833  31.9519063  33.2911543  52.2436803  26.0499123  18.9220383
  52.1600523  26.4813343  18.0716823  52.9630993  26.5097473  19.3547203
  53.3210943  28.5066643  31.9990353  52.5959133  29.0995423  31.8019743
  53.8486403  28.4990183  31.2003723  53.2724053  32.9041383  21.6502513
  52.6300213  32.2497003  21.9246233  52.8854713  33.3096473  20.8743183
  48.8510533  30.2326813  25.4974203  49.2034353  29.6354943  24.8375573
  47.9672863  29.9071043  25.6682453  44.9373813  30.9924503  22.9044613
  45.6244943  31.5393713  23.2852203  44.1506233  31.5365233  22.9394223
  37.0766213  26.6097323  18.3961693  37.9461063  26.8922123  18.6797613
  36.5856533  27.4233193  18.2810503  44.2401023  27.9970533  22.5169973
  44.6963803  28.8075783  22.7430163  43.8889233  27.6793673  23.3488463
  46.5433633  33.5076873  29.7462273  47.1875853  33.7136253  30.4235693
  46.9063073  32.7465273  29.2933123  40.1412803  18.3408183  22.9892493
  40.0127433  18.3326083  23.9377413  39.3174823  18.6791273  22.6383503
  47.8165713  31.5109223  28.4639723  48.4587943  30.8102383  28.5771893
  48.3415063  32.2907663  28.2836613  51.6621433  31.7957843  18.1878863
  51.4359013  31.0788283  18.7803503  51.2717633  31.5470283  17.3500613
  49.5903333  32.3104123  31.6675783  49.9259573  32.8970813  32.3453703
  48.6703673  32.1796833  31.8973573  37.4437463  35.8224703  18.9623323
  37.8035103  36.4214043  18.3080593  37.3029803  36.3684593  19.7358353
  37.1406733  20.0999303  32.4499193  36.4265253  20.2996223  33.0551803
  37.5601773  19.3238873  32.8213993  51.2437683  29.7129783  19.8493023
  50.9559383  30.1742473  20.6370903  52.0389853  29.2527553  20.1177243
  45.4191913  32.3595453  34.8363843  45.0988783  31.6404693  35.3809533
  44.7450273  33.0350523  34.9099903  43.4606083  33.2055903  19.7796993
  43.4516183  33.9385593  19.1641503  42.5404443  32.9587483  19.8723953
  39.0612723  28.4270793  20.5243753  38.4540673  29.1669693  20.5339053
  39.5362073  28.5170153  19.6981953  48.6345513  22.5921613  30.2000643
  49.0026333  21.7716823  30.5280213  47.7743713  22.6523503  30.6156293
  52.0007543  21.5478553  21.0088203  51.3720703  21.6524223  20.2946433
  51.5059463  21.7675333  21.7982083  46.4465683  33.2684143  18.4422183
  46.5477663  33.0648133  17.5124163  45.5467423  33.0142423  18.6469963
  43.9691573  23.8264503  22.4246083  43.2607723  24.2950843  22.8659693
  44.2536053  23.1686513  23.0591273  45.5947503  25.2461203  30.4238613
  46.0932753  25.7207023  31.0890463  45.7370453  24.3224723  30.6308643
  48.0007003  20.5515163  23.8641873  47.8774783  20.5701293  22.9151383
  48.9491563  20.5994103  23.9840273  45.0883793  35.7870463  23.1369853
  45.3425293  35.7491853  22.2149223  44.1396273  35.6603793  23.1298103
  42.1726593  22.1349583  19.7996793  43.0217123  22.5719733  19.7336983
  41.8057863  22.4469843  20.6268853  52.8014363  21.4629163  31.2667003
  52.2987963  22.2034563  31.6060813  53.6171023  21.8513163  30.9503793
  51.0936373  26.7062343  24.7128363  50.1526513  26.7212573  24.8876053
  51.4080443  25.9198303  25.1588663  41.0718013  28.3881943  18.2732323
  41.8381283  28.2763303  18.8357753  41.1492703  27.6919913  17.6209093
  39.7664773  25.8207013  18.9565213  39.8468363  24.8734523  19.0682613
  40.6584523  26.1513893  19.0625873  53.0961953  33.8771193  26.3882623
  53.2209373  34.7002363  26.8606433  53.9627513  33.6661923  26.0406773
  40.5679483  35.9702403  26.0599753  41.3041963  35.4217863  26.3308323
  40.9520403  36.8358413  25.9205743  37.4524963  32.0375973  21.9341263
  36.5264743  32.2797113  21.9246673  37.9181393  32.8650233  21.8126013
  43.6781793  35.1432713  17.8825323  44.4710403  35.4321543  17.4307113
  43.1586143  34.7124883  17.2037803  48.4102393  31.2628343  35.1960743
  47.8040553  31.2859943  34.4556493  48.1056503  30.5311383  35.7327993
  49.8402763  34.9908633  33.8070153  50.7924513  34.9066653  33.7570393
  49.6930983  35.6550343  34.4803943  52.7311963  34.3702843  19.3062063
  52.4453473  33.9567983  18.4916243  52.5331513  35.2990553  19.1862583
  37.2935573  27.6421933  34.1921383  37.7974593  27.0629213  34.7637613
  36.5542993  27.9262163  34.7297753  44.1959193  30.3636123  17.7467673
  44.0909833  29.7488473  18.4729053  44.0283413  29.8402013  16.9630683
  44.3473513  29.0492923  33.7256903  43.5819183  29.6177923  33.6411573
  44.5289473  28.7569133  32.8325133  47.4361923  29.4256153  18.3509663
  46.8872023  29.8725453  18.9952403  48.0581183  28.9205403  18.8747333
  51.4896863  30.7798253  34.2831923  52.2306333  31.1174013  33.7799383
  50.7269543  30.9490313  33.7301693  39.3258653  25.7851523  35.0871453
  39.3663993  25.4865393  35.9956683  40.1804153  26.1859133  34.9278973
  43.1037043  28.3847073  20.2474963  43.5253463  28.2186943  21.0906353
  43.2287883  27.5747303  19.7530103  41.2664463  24.3643623  33.0545943
  40.7360923  23.8734573  32.4269283  41.9352533  24.7927823  32.5203873
  45.6164683  27.4084683  17.4952063  46.1370343  26.6933703  17.1293213
  46.2633083  28.0470553  17.7952573  50.1642523  28.8313083  32.8187133
  50.5783543  28.9858163  33.6677553  49.2293523  28.9568303  32.9812913
  50.6364693  26.1709243  34.8226283  51.2185463  25.4161563  34.7346763
  50.8126463  26.7016683  34.0457763  41.7536763  21.3305993  33.1343233
  41.6593633  20.7126743  32.4094103  41.1734153  22.0572283  32.9073143
  44.5198203  19.8879233  30.1670623  44.0715503  19.9103493  29.3216173
  43.8863403  19.4898253  30.7640923  44.9257753  28.7833563  30.7883063
  45.3445863  29.6266293  30.6159303  44.0066383  28.9205603  30.5589843
  47.2621653  26.5149743  32.1720903  47.3817863  25.9190883  32.9115743
  48.1215653  26.5519433  31.7522203  49.6009553  27.0686933  30.7483413
  49.0744773  27.5929553  30.1448553  49.9440893  27.7014323  31.3793143
  41.9995943  24.4580303  17.1933123  41.7985003  23.5947663  17.5546463
  41.8287993  24.3713663  16.2554723  42.7765173  35.0886573  31.9040793
  42.2386263  35.8132633  31.5849493  43.0299133  34.6116913  31.1138133
  44.0290423  23.0571093  33.4296723  44.6190113  22.7486943  34.1174543
  43.2110663  22.5850843  33.5856623  48.8483853  22.6736903  33.6629743
  48.1599373  22.0118443  33.5979733  49.5689873  22.2275173  34.1078203
  49.4784253  19.2688533  19.7220003  49.7586543  18.4256433  20.0779423
  48.7049983  19.5011643  20.2358753  40.7978743  21.5580923  17.1811003
  41.1004643  21.5648353  16.2730153  41.5373333  21.2078783  17.6778663
  45.6327383  36.3237783  32.1627443  45.5586083  37.2272923  32.4699813
  44.7306223  36.0049683  32.1349513  44.0163673  20.5015543  18.1667203
  43.6685673  19.8239533  17.5869653  44.2176443  20.0405053  18.9810593
  46.1812713  35.4896293  19.7853803  47.0763503  35.8281263  19.8072563
  46.2130343  34.7675703  19.1578083  39.8208873  30.8623343  18.0140803
  40.2583743  31.4053013  18.6698383  40.3056603  30.0370293  18.0237143
  37.0354673  33.6512373  25.4661063  37.3657683  32.7833433  25.2339703
  37.4645673  33.8570893  26.2966023  41.6316593  31.9821383  23.1263033
  41.3312133  31.8586353  24.0266943  41.5254083  31.1229973  22.7178763
  37.5244883  34.5182963  28.2042693  37.0875873  34.6983763  29.0366843
  38.0922563  35.2757583  28.0624413  53.1607063  34.0199963  32.4920003
  52.5609053  34.0792523  31.7483923  53.2900963  33.0804943  32.6216853
  54.4008513  31.7617783  17.8289713  53.5701473  31.8294433  18.2996943
  54.5780343  32.6521903  17.5256573  53.8564973  28.5065263  20.3323913
  54.6183883  29.0761913  20.4383603  53.8719343  27.9392463  21.1032223
  37.3569313  27.0303193  24.5631573  36.7018153  26.7614833  23.9191273
  38.1947263  26.9207673  24.1133553  54.8624943  29.3615363  25.1765843
  55.2333773  28.5782683  24.7701813  55.5026873  30.0504463  24.9983143
  51.8458703  30.7451943  30.5896163  51.0318543  31.1749103  30.8521953
  52.2532903  31.3570353  29.9765213  53.9084143  28.7999633  17.4896433
  54.1832983  29.7078513  17.3615653  53.7194883  28.7362163  18.4258423
  50.3059753  21.8244483  18.7850063  50.7244633  21.6375463  17.9446723
  49.9995813  20.9723533  19.0952993  53.8049483  26.7368623  22.4825863
  53.4293083  25.9696553  22.0507153  53.0752603  27.1191323  22.9700793
  38.3945243  27.4155763  29.1034913  38.7618283  27.3283163  29.9830933
  37.8256063  26.6522313  29.0041773  53.1949103  25.8840143  32.1165383
  52.9635193  25.6552893  31.2163333  53.4553653  26.8039693  32.0710273
  37.9461243  24.3264853  33.0093333  37.0517293  24.2931613  33.3487043
  38.4858793  24.5251643  33.7744583  51.6337173  21.1096573  34.8945083
  52.5107353  21.1179973  35.2779083  51.6458013  20.3727413  34.2837433
  36.5707393  24.2402123  20.5056903  35.6671473  24.5032323  20.3308563
  37.0548013  24.5113293  19.7256863  53.0800443  24.9626113  25.7833103
  53.6037923  24.4688763  25.1523273  53.6659863  25.0976473  26.5280673
  53.2590163  25.0465983  29.3052653  52.3092873  25.0129523  29.4197643
  53.4403173  25.9566093  29.0702423  39.1134603  23.2967663  18.4151283
  39.8226303  22.8750883  17.9298563  38.3974543  23.3642893  17.7834633
  38.7608763  19.3506993  17.4553933  39.4836893  19.8915933  17.7735153
  39.0333283  19.0770413  16.5795473  52.5700413  24.2199463  21.7225513
  53.0659533  23.9870333  22.5074393  52.3716483  23.3811303  21.3063153
  38.4500953  18.6013183  27.3576553  39.0977143  18.0510563  26.9171713
  38.8702793  18.8556333  28.1792363  53.9987573  22.8560413  24.2563193
  53.8886853  22.7016453  25.1945463  54.7595163  22.3281353  24.0138603
  52.3453293  18.7954543  30.7146193  52.9825513  19.4088683  31.0805383
  52.4928183  18.8315203  29.7695423  54.8877843  20.6868333  17.4969333
  55.8127153  20.5549513  17.2887623  54.8653633  20.7661153  18.4505783
  54.9616333  21.4578993  20.1226043  54.1667833  21.3924113  20.6518953
  55.1659613  22.3929633  20.1111393  51.9034753  35.4970543  24.1164433
  52.4993823  35.1755113  23.4398853  52.1612903  35.0242363  24.9077703
  38.2032953  18.7568853  30.1001873  37.8547773  19.2132673  30.8660053
  37.8720653  17.8625983  30.1824303  43.5103353  33.4848043  29.8664783
  43.2694713  33.7522603  28.9795303  44.4505993  33.6553773  29.9215643
  45.7157773  19.9480733  33.6221293  45.6546663  20.5402563  34.3716703
  46.6558153  19.8406693  33.4771553  48.3532333  19.6050793  33.2613583
  48.9672743  19.9230083  32.5994663  48.8981893  19.1199383  33.8809443
  54.7707513  35.5042423  30.6675423  54.2765793  35.9011293  29.9502553
  54.1620803  34.8791633  31.0612703  38.8753593  18.2845053  33.3752643
  39.4236583  18.1033103  32.6118753  38.9408903  17.4939163  33.9108953
  39.6485353  34.8750703  31.3852843  39.0545673  34.7435403  32.1242883
  39.6409193  34.0388843  30.9194943  49.0940373  18.1682933  29.5882873
  48.2200213  18.5018043  29.3855803  48.9851123  17.6956113  30.4134743
  50.0012353  20.3753803  30.9724593  49.6725713  19.5605563  30.5926323
  50.9494653  20.3323613  30.8490283  52.4546963  36.1465843  27.9462163
  51.9949933  36.8981653  27.5720183  51.8259423  35.4272313  27.8876963
  42.8842683  34.4554083  27.1210293  43.4007703  33.8441443  26.5958553
  43.5340063  34.9582863  27.6121303  45.6238183  35.3462573  27.9479273
  45.9115993  35.0916873  27.0712283  46.1361403  34.7939933  28.5384843
  46.8415193  19.0852773  28.5275783  46.0586983  19.5598273  28.8072543
  46.5478123  18.1807603  28.4188963  51.3936263  19.7875873  26.5724873
  51.8344353  19.7320973  25.7246473  51.1243853  20.7033883  26.6435053
  53.2574833  19.4191113  24.5833693  53.1963233  18.4752333  24.4364713
  54.0366863  19.5271203  25.1287153  37.5627583  35.5583473  23.5457643
  37.3949623  34.9254153  24.2439533  36.6962093  35.7642873  23.1951833
  38.1855603  19.3900253  21.0489503  38.9434963  19.5029133  20.4753533
  37.7232773  20.2269453  21.0032933  44.7269413  21.5039523  24.0391813
  43.9143923  21.1296413  23.6987693  45.2311053  20.7484603  24.3413003
  49.2294393  18.1681973  25.2774883  49.8323763  18.7402183  25.7523403
  48.4887383  18.7321413  25.0548783  52.3728993  18.5703533  20.5515163
  52.5679623  19.4686983  20.8182593  51.5858863  18.3390613  21.0448113
  39.1690283  34.2516703  20.9907783  38.6437903  34.6324733  20.2869743
  39.0934863  34.8767473  21.7117493  40.5580753  19.9164303  19.5891473
  41.0873513  19.1294103  19.4599423  41.1909073  20.5955493  19.8227003
  42.7518593  19.6539443  22.6436863  42.1221333  18.9526753  22.8106993
  42.2123733  20.4143573  22.4270023  45.6910543  36.2678673  35.3147473
  46.6177853  36.0322943  35.3583433  45.6760973  37.0950673  34.8333503
  53.9255603  35.8104243  22.3121723  54.1007793  35.1241983  21.6682643
  53.2277173  36.3351293  21.9198393  42.8774153  18.9323423  35.0789353
  42.5958423  19.4357023  34.3150173  43.2593853  18.1345173  34.7131483
  41.7683253  36.1999083  19.8657033  42.5002073  35.9158363  19.3180923
  42.0276923  35.9612363  20.7556413  40.9298043  32.3163813  19.8703363
  40.3006923  32.7848913  20.4189193  41.0445873  31.4713033  20.3049553
  49.4789613  18.3477003  35.6569823  49.3655063  18.6671613  36.5521343
  50.2959353  18.7489513  35.3607103  52.2588103  35.4948533  35.1388513
  53.0513423  34.9997763  34.9314473  52.5521253  36.1738673  35.7464123
  48.3847763  26.3669473   6.0204563  48.3041813  25.4524083   5.7496273
  47.9712183  26.8636543   5.3144273  46.5165803  28.1448493   7.9013833
  45.7407903  27.6648933   8.1912403  47.1678733  27.4654143   7.7269993
  40.5331633  28.4568303   8.7789593  39.7016513  28.2017013   9.1786103
  41.1412613  28.5279073   9.5147513  50.5373233  32.5508683   6.6812963
  50.0754763  31.7795923   7.0100133  51.3498783  32.5774753   7.1865413
  40.5132893  32.4908393   8.9747613  40.8160933  31.6006133   8.7957833
  41.2576483  33.0478613   8.7469863  36.9056593  26.0175843   8.4471683
  37.4772703  25.2498043   8.4475323  36.9058133  26.3164603   7.5378293
  46.7636543  34.8366693   6.3016953  46.1447983  35.2924193   5.7311393
  47.6188323  34.9918153   5.9006653  45.9574793  30.8205683   7.9083993
  45.8883073  29.8795623   7.7473123  46.7194653  30.9107093   8.4806563
  38.1481463  21.4260203  10.2340613  37.9684303  20.5285953  10.5143373
  37.7461543  21.9732073  10.9087563  46.9879963  23.6276063   8.1352923
  47.3644783  22.7547943   8.0226593  46.8899473  23.9634763   7.2443363
  41.1184973  22.0001693   3.5970363  41.2251723  22.9005423   3.9039123
  40.2077333  21.9519663   3.3065013  50.7704083  21.1226503   5.0681263
  51.5913703  20.6323073   5.1106743  50.8038163  21.7124163   5.8213103
  38.7668133  23.9220703   8.8422953  39.4478243  24.1859073   9.4610353
  38.4516183  23.0821573   9.1760963  42.9592703  24.9688063   7.9295543
  43.4670923  25.4669033   8.5700563  43.4905943  24.1923263   7.7534903
  55.0603633  23.1393253  11.6324893  54.3555803  23.5274963  11.1140003
  55.3261553  23.8343543  12.2345823  41.2428803  19.6086623  12.1958963
  41.2447243  20.1259013  11.3904863  40.4133113  19.1316803  12.1728893
  47.6299893  29.7205933   3.6948863  47.0117163  30.1855383   3.1311583
  48.1423143  30.4133413   4.1118373  42.4931653  29.2481803  10.3732463
  42.1601033  29.8750723  11.0153533  42.6698333  29.7743683   9.5934133
  51.0065563  23.0626883   7.8408803  50.3021133  23.3511773   8.4211913
  51.3677723  23.8726993   7.4808363  40.9244133  21.3196583  10.2029413
  41.2660943  22.1638633   9.9083283  39.9859943  21.4680323  10.3194753
  41.7050753  31.2162603  12.1881643  42.3224753  31.8913683  11.9066093
  40.8443873  31.6250583  12.0969143  52.6228343  32.6802013  10.1036283
  51.9391863  33.3501123  10.0952953  53.1622633  32.8782663   9.3381143
  54.0752483  22.5081673   8.2318013  53.1277393  22.5420653   8.3633443
  54.4002473  23.3220623   8.6167373  44.6072023  18.8078853   6.5274003
  44.9147003  18.2525743   5.8109503  43.6772723  18.9423313   6.3446993
  50.1587083  34.5246143   8.8181463  50.1714243  34.1208433   7.9503723
  49.6062303  35.2993433   8.7142893  51.4532503  31.2462363   3.9071633
  51.3428833  30.3036693   4.0321053  51.4500753  31.6078003   4.7934393
  49.5572523  29.4275983  10.1464073  49.9741313  29.2136093   9.3117533
  50.2812343  29.6848773  10.7172693  46.9952783  26.8727683   3.2634123
  46.0682063  26.8065063   3.4922593  47.1477603  27.8107813   3.1489363
  53.5034623  27.8263203  10.2380313  52.6753253  27.8956293   9.7630443
  54.0985103  28.4117513   9.7696143  51.0250073  28.4347983   3.7669373
  50.4062493  28.0967533   3.1195673  51.0074523  27.7907743   4.4748563
  50.4676633  24.6132523  11.1835183  50.0547813  25.4386233  11.4375173
  49.7352583  24.0277563  10.9911543  42.6009423  27.3992423   6.0453853
  42.1966423  26.6869673   5.5499753  42.6872543  27.0545663   6.9341893
  43.0691123  31.0859983   8.2093063  42.7719413  30.4805453   7.5300843
  44.0190943  31.1237293   8.0982423  41.3138043  24.1735633   9.8252893
  41.8652633  24.2830973   9.0506143  41.8281553  24.5473233  10.5408123
  51.1576733  34.6591853  11.8716163  50.6807293  35.4664043  11.6788773
  50.4738523  34.0070183  12.0242373  42.1609553  30.8241673  14.8600863
  41.2638083  31.0481643  15.1074263  42.1862423  30.9476613  13.9112263
  40.9880773  27.6954993  13.4358233  40.8488543  28.5677793  13.8045633
  40.1062133  27.3527803  13.2906173  47.3110153  32.6130863   4.7423363
  47.7506063  33.3555193   4.3278753  47.2497043  32.8557433   5.6662323
  42.7861123  33.6376693  15.6443383  42.7576553  34.0419643  14.7771813
  42.6226093  32.7087053  15.4814983  39.3014053  26.2937403   3.5460503
  39.1811653  27.0199493   2.9341773  38.9914943  25.5240313   3.0688413
  54.7375943  34.4203793  16.9407553  55.2135663  34.8986683  17.6196633
  55.3583103  34.3521283  16.2153053  36.9399423  29.4652543   9.3529143
  37.0179843  29.6001313   8.4084863  37.5541103  28.7568433   9.5457263
  38.1847053  31.1652733   5.7635323  37.7775133  31.3067323   4.9088923
  39.0760063  30.8812893   5.5606533  54.1409193  31.6116643  14.1007563
  54.2672253  31.3728523  13.1824743  54.1830573  30.7801183  14.5729643
  48.0025933  35.3144643  12.6702373  48.5170603  35.2252653  13.4724803
  47.1595013  35.6604343  12.9630283  42.4568713  35.3798513   3.8757993
  42.2811193  34.4634053   3.6625793  41.6024453  35.7385803   4.1155793
  49.2456393  34.7350253   4.7332863  49.7013343  33.9539633   5.0471483
  49.5848913  35.4457073   5.2774043  53.9933203  23.6649103  15.0657303
  53.3777473  24.1728773  14.5372763  53.6729623  22.7647433  15.0083243
  36.9958943  30.5066713  11.8923603  37.1589983  30.0372073  11.0742973
  37.4611393  29.9990273  12.5572443  41.7677713  19.6372473   6.9284173
  41.3245863  20.4182013   6.5968693  42.3262703  19.9602363   7.6355113
  46.0547523  22.5040993  12.5319493  45.5926893  22.7124013  13.3439433
  45.6525633  21.6900343  12.2290163  51.0552033  23.7249943  13.6616153
  50.2045623  23.4255693  13.9825223  50.8953823  23.9691953  12.7499973
  48.1501743  25.2251693  15.7614943  48.4755153  24.3915443  15.4217173
  48.9382073  25.7480213  15.9093273  43.8053613  20.1819803   8.7873773
  44.1025943  21.0882633   8.7065793  44.3539173  19.6938583   8.1733343
  41.5591933  24.7606043   4.6565423  41.3332853  24.5443213   5.5612043
  40.7784463  25.1934503   4.3111393  48.7889693  24.7669413   3.2556073
  48.1898583  25.4905213   3.0719693  49.3369303  24.7046193   2.4732523
  43.9991143  25.6591623  15.3225693  43.9034743  24.7186353  15.1726093
  44.8423123  25.8806693  14.9273763  47.3954563  23.4032953   5.2859353
  47.7884133  23.7205153   4.4728043  47.7571413  22.5244833   5.4003873
  39.1301683  22.0705293  13.4759473  38.7365073  22.9180503  13.6832253
  38.4420083  21.4331663  13.6668113  45.7046733  22.1540263  16.5456213
  45.0145053  21.9612463  17.1802303  46.4479033  22.4374903  17.0780513
  36.4318733  19.9933753   7.5089553  36.1431783  20.5636613   8.2214533
  37.1764493  19.5138203   7.8720783  47.9809703  25.9938703   9.3810133
  47.2490823  26.5025513   9.7300233  47.5834043  25.1768683   9.0798913
  44.4187093  22.6692903   7.7862623  44.4223153  22.2282853   6.9367163
  45.3138213  22.9910233   7.8934443  40.2689473  22.5519393   6.7456833
  39.9289523  23.0294623   7.5023883  39.5066793  22.0984513   6.3857933
  48.4435613  21.4472383   8.7933073  48.4608353  21.8981033   9.6374923
  48.1951193  20.5478023   9.0066513  51.8706363  18.8604563  14.6319453
  52.1952133  18.1294223  15.1577433  51.9062873  18.5418203  13.7300443
  38.5697923  29.8818143  14.0519413  38.1852713  29.2411813  14.6502373
  38.8810113  30.5854263  14.6214143  44.7195063  26.7294683   9.5328033
  45.0865193  26.2553253  10.2789373  44.5300123  27.6036253   9.8736373
  37.5835553  21.4738373   5.6621503  37.2982473  21.1094043   6.5000123
  37.5214413  20.7418833   5.0484643  42.5094433  25.7703323  11.8512243
  42.2051503  26.6495303  12.0762603  43.4640893  25.8303113  11.8869683
  41.0376223  29.9764313   2.4479093  40.2638483  29.4361933   2.2877813
  41.7670853  29.4570923   2.1096853  51.7964203  28.9729673   8.2405483
  52.5163323  29.4684963   7.8501593  51.5946023  28.2947563   7.5959353
  47.2574143  20.3667633   2.3834873  46.4438753  19.8680803   2.3080183
  47.0636093  21.2065883   1.9671223  47.1783003  29.0438733  14.1274483
  47.1120313  28.1234403  13.8732073  46.5488143  29.1414173  14.8419123
  41.0813623  29.6444693   6.0857903  41.5992293  28.8412953   6.0314793
  40.6297643  29.5823833   6.9274733  38.5658163  26.6106063  12.9983603
  38.2073103  27.2759913  13.5856943  38.2712723  25.7789613  13.3696223
  41.7671283  27.0690303  15.8823153  41.4671423  27.2147483  14.9850973
  42.5382523  26.5095593  15.7896543  47.1099733  31.8659303  13.8778283
  47.1244273  30.9340263  13.6597193  46.4024833  31.9519063  14.5168053
  53.3210943  28.5066643  13.2246863  52.5959133  29.0995423  13.0276253
  53.8486403  28.4990183  12.4260233  53.2724053  32.9041383   2.8759023
  52.6300213  32.2497003   3.1502743  52.8854713  33.3096473   2.0999693
  48.8510533  30.2326813   6.7230713  49.2034353  29.6354943   6.0632083
  47.9672863  29.9071043   6.8938963  44.9373813  30.9924503   4.1301123
  45.6244943  31.5393713   4.5108713  44.1506233  31.5365233   4.1650733
  44.2401023  27.9970533   3.7426483  44.6963803  28.8075783   3.9686673
  43.8889233  27.6793673   4.5744973  46.5433633  33.5076873  10.9718783
  47.1875853  33.7136253  11.6492203  46.9063073  32.7465273  10.5189633
  40.1412803  18.3408183   4.2149003  40.0127433  18.3326083   5.1633923
  39.3174823  18.6791273   3.8640013  47.8165713  31.5109223   9.6896233
  48.4587943  30.8102383   9.8028403  48.3415063  32.2907663   9.5093123
  49.5903333  32.3104123  12.8932293  49.9259573  32.8970813  13.5710213
  48.6703673  32.1796833  13.1230083  37.1406733  20.0999303  13.6755703
  36.4265253  20.2996223  14.2808313  37.5601773  19.3238873  14.0470503
  37.4279323  34.0879563  14.6622233  37.5370443  33.1474303  14.5217623
  36.7759883  34.3534313  14.0135963  45.4191913  32.3595453  16.0620353
  45.0988783  31.6404693  16.6066043  44.7450273  33.0350523  16.1356413
  48.6345513  22.5921613  11.4257153  49.0026333  21.7716823  11.7536723
  47.7743713  22.6523503  11.8412803  43.9691573  23.8264503   3.6502593
  43.2607723  24.2950843   4.0916203  44.2536053  23.1686513   4.2847783
  45.5947503  25.2461203  11.6495123  46.0932753  25.7207023  12.3146973
  45.7370453  24.3224723  11.8565153  48.0007003  20.5515163   5.0898383
  47.8774783  20.5701293   4.1407893  48.9491563  20.5994103   5.2096783
  45.0883793  35.7870463   4.3626363  45.3425293  35.7491853   3.4405733
  44.1396273  35.6603793   4.3554613  52.8014363  21.4629163  12.4923513
  52.2987963  22.2034563  12.8317323  53.6171023  21.8513163  12.1760303
  51.0936373  26.7062343   5.9384873  50.1526513  26.7212573   6.1132563
  51.4080443  25.9198303   6.3845173  53.0961953  33.8771193   7.6139133
  53.2209373  34.7002363   8.0862943  53.9627513  33.6661923   7.2663283
  40.5679483  35.9702403   7.2856263  41.3041963  35.4217863   7.5564833
  40.9520403  36.8358413   7.1462253  37.4524963  32.0375973   3.1597773
  36.5264743  32.2797113   3.1503183  37.9181393  32.8650233   3.0382523
  39.5737763  35.1548473  16.4741843  40.3750493  35.4760523  16.8877243
  39.0589583  34.7944053  17.1961753  48.4102393  31.2628343  16.4217253
  47.8040553  31.2859943  15.6813003  48.1056503  30.5311383  16.9584503
  49.8402763  34.9908633  15.0326663  50.7924513  34.9066653  14.9826903
  49.6930983  35.6550343  15.7060453  37.2935573  27.6421933  15.4177893
  37.7974593  27.0629213  15.9894123  36.5542993  27.9262163  15.9554263
  44.3473513  29.0492923  14.9513413  43.5819183  29.6177923  14.8668083
  44.5289473  28.7569133  14.0581643  51.4896863  30.7798253  15.5088433
  52.2306333  31.1174013  15.0055893  50.7269543  30.9490313  14.9558203
  39.3258653  25.7851523  16.3127963  39.3663993  25.4865393  17.2213193
  40.1804153  26.1859133  16.1535483  41.2664463  24.3643623  14.2802453
  40.7360923  23.8734573  13.6525793  41.9352533  24.7927823  13.7460383
  50.1642523  28.8313083  14.0443643  50.5783543  28.9858163  14.8934063
  49.2293523  28.9568303  14.2069423  50.6364693  26.1709243  16.0482793
  51.2185463  25.4161563  15.9603273  50.8126463  26.7016683  15.2714273
  41.7536763  21.3305993  14.3599743  41.6593633  20.7126743  13.6350613
  41.1734153  22.0572283  14.1329653  44.5198203  19.8879233  11.3927133
  44.0715503  19.9103493  10.5472683  43.8863403  19.4898253  11.9897433
  44.9257753  28.7833563  12.0139573  45.3445863  29.6266293  11.8415813
  44.0066383  28.9205603  11.7846353  47.2621653  26.5149743  13.3977413
  47.3817863  25.9190883  14.1372253  48.1215653  26.5519433  12.9778713
  49.6009553  27.0686933  11.9739923  49.0744773  27.5929553  11.3705063
  49.9440893  27.7014323  12.6049653  42.7765173  35.0886573  13.1297303
  42.2386263  35.8132633  12.8106003  43.0299133  34.6116913  12.3394643
  44.0290423  23.0571093  14.6553233  44.6190113  22.7486943  15.3431053
  43.2110663  22.5850843  14.8113133  48.8483853  22.6736903  14.8886253
  48.1599373  22.0118443  14.8236243  49.5689873  22.2275173  15.3334713
  45.6327383  36.3237783  13.3883953  45.5586083  37.2272923  13.6956323
  44.7306223  36.0049683  13.3606023  37.0354673  33.6512373   6.6917573
  37.3657683  32.7833433   6.4596213  37.4645673  33.8570893   7.5222533
  41.6316593  31.9821383   4.3519543  41.3312133  31.8586353   5.2523453
  41.5254083  31.1229973   3.9435273  37.5244883  34.5182963   9.4299203
  37.0875873  34.6983763  10.2623353  38.0922563  35.2757583   9.2880923
  53.1607063  34.0199963  13.7176513  52.5609053  34.0792523  12.9740433
  53.2900963  33.0804943  13.8473363  37.3569313  27.0303193   5.7888083
  36.7018153  26.7614833   5.1447783  38.1947263  26.9207673   5.3390063
  54.8624943  29.3615363   6.4022353  55.2333773  28.5782683   5.9958323
  55.5026873  30.0504463   6.2239653  51.8458703  30.7451943  11.8152673
  51.0318543  31.1749103  12.0778463  52.2532903  31.3570353  11.2021723
  53.8049483  26.7368623   3.7082373  53.4293083  25.9696553   3.2763663
  53.0752603  27.1191323   4.1957303  38.3945243  27.4155763  10.3291423
  38.7618283  27.3283163  11.2087443  37.8256063  26.6522313  10.2298283
  53.1949103  25.8840143  13.3421893  52.9635193  25.6552893  12.4419843
  53.4553653  26.8039693  13.2966783  37.9461243  24.3264853  14.2349843
  37.0517293  24.2931613  14.5743553  38.4858793  24.5251643  15.0001093
  51.6337173  21.1096573  16.1201593  52.5107353  21.1179973  16.5035593
  51.6458013  20.3727413  15.5093943  53.0800443  24.9626113   7.0089613
  53.6037923  24.4688763   6.3779783  53.6659863  25.0976473   7.7537183
  53.2590163  25.0465983  10.5309163  52.3092873  25.0129523  10.6454153
  53.4403173  25.9566093  10.2958933  52.5700413  24.2199463   2.9482023
  53.0659533  23.9870333   3.7330903  52.3716483  23.3811303   2.5319663
  38.4500953  18.6013183   8.5833063  39.0977143  18.0510563   8.1428223
  38.8702793  18.8556333   9.4048873  53.9987573  22.8560413   5.4819703
  53.8886853  22.7016453   6.4201973  54.7595163  22.3281353   5.2395113
  52.3453293  18.7954543  11.9402703  52.9825513  19.4088683  12.3061893
  52.4928183  18.8315203  10.9951933  51.9034753  35.4970543   5.3420943
  52.4993823  35.1755113   4.6655363  52.1612903  35.0242363   6.1334213
  38.2032953  18.7568853  11.3258383  37.8547773  19.2132673  12.0916563
  37.8720653  17.8625983  11.4080813  39.8097323  31.9288453  15.4911573
  39.7666953  31.5581363  16.3726033  39.9408333  32.8666023  15.6313393
  43.5103353  33.4848043  11.0921293  43.2694713  33.7522603  10.2051813
  44.4505993  33.6553773  11.1472153  45.7157773  19.9480733  14.8477803
  45.6546663  20.5402563  15.5973213  46.6558153  19.8406693  14.7028063
  48.3532333  19.6050793  14.4870093  48.9672743  19.9230083  13.8251173
  48.8981893  19.1199383  15.1065953  54.7707513  35.5042423  11.8931933
  54.2765793  35.9011293  11.1759063  54.1620803  34.8791633  12.2869213
  38.8753593  18.2845053  14.6009153  39.4236583  18.1033103  13.8375263
  38.9408903  17.4939163  15.1365463  39.6485353  34.8750703  12.6109353
  39.0545673  34.7435403  13.3499393  39.6409193  34.0388843  12.1451453
  49.0940373  18.1682933  10.8139383  48.2200213  18.5018043  10.6112313
  48.9851123  17.6956113  11.6391253  50.0012353  20.3753803  12.1981103
  49.6725713  19.5605563  11.8182833  50.9494653  20.3323613  12.0746793
  52.4546963  36.1465843   9.1718673  51.9949933  36.8981653   8.7976693
  51.8259423  35.4272313   9.1133473  39.2797583  32.2409083  11.5617393
  38.5531643  31.6214373  11.4943343  39.3406733  32.6349693  10.6915473
  42.8842683  34.4554083   8.3466803  43.4007703  33.8441443   7.8215063
  43.5340063  34.9582863   8.8377813  45.6238183  35.3462573   9.1735783
  45.9115993  35.0916873   8.2968793  46.1361403  34.7939933   9.7641353
  46.8415193  19.0852773   9.7532293  46.0586983  19.5598273  10.0329053
  46.5478123  18.1807603   9.6445473  51.3936263  19.7875873   7.7981383
  51.8344353  19.7320973   6.9502983  51.1243853  20.7033883   7.8691563
  53.2574833  19.4191113   5.8090203  53.1963233  18.4752333   5.6621223
  54.0366863  19.5271203   6.3543663  37.5627583  35.5583473   4.7714153
  37.3949623  34.9254153   5.4696043  36.6962093  35.7642873   4.4208343
  44.7269413  21.5039523   5.2648323  43.9143923  21.1296413   4.9244203
  45.2311053  20.7484603   5.5669513  49.2294393  18.1681973   6.5031393
  49.8323763  18.7402183   6.9779913  48.4887383  18.7321413   6.2805293
  52.3728993  18.5703533   1.7771673  52.5679623  19.4686983   2.0439103
  51.5858863  18.3390613   2.2704623  42.7518593  19.6539443   3.8693373
  42.1221333  18.9526753   4.0363503  42.2123733  20.4143573   3.6526533
  45.6910543  36.2678673  16.5403983  46.6177853  36.0322943  16.5839943
  45.6760973  37.0950673  16.0590013  53.9255603  35.8104243   3.5378233
  54.1007793  35.1241983   2.8939153  53.2277173  36.3351293   3.1454903
  42.8774153  18.9323423  16.3045863  42.5958423  19.4357023  15.5406683
  43.2593853  18.1345173  15.9387993  49.4789613  18.3477003  16.8826333
  49.3655063  18.6671613  17.7777853  50.2959353  18.7489513  16.5863613
  52.2588103  35.4948533  16.3645023  53.0513423  34.9997763  16.1570983
  52.5521253  36.1738673  16.9720633  48.3847763   7.5925983  62.3435033
  48.3041813   6.6780593  62.0726743  47.9712183   8.0893053  61.6374743
  46.5165803   9.3705003  64.2244303  45.7407903   8.8905443  64.5142873
  47.1678733   8.6910653  64.0500463  40.5331633   9.6824813  65.1020063
  39.7016513   9.4273523  65.5016573  41.1412613   9.7535583  65.8377983
  50.5373233  13.7765193  63.0043433  50.0754763  13.0052433  63.3330603
  51.3498783  13.8031263  63.5095883  40.5132893  13.7164903  65.2978083
  40.8160933  12.8262643  65.1188303  41.2576483  14.2735123  65.0700333
  38.9423583   4.6426703  58.8862453  38.0540283   4.9842673  58.7842333
  39.2264773   4.4427023  57.9943283  36.9056593   7.2432353  64.7702153
  37.4772703   6.4754553  64.7705793  36.9058133   7.5421113  63.8608763
  46.7636543  16.0623203  62.6247423  46.1447983  16.5180703  62.0541863
  47.6188323  16.2174663  62.2237123  45.9574793  12.0462193  64.2314463
  45.8883073  11.1052133  64.0703593  46.7194653  12.1363603  64.8037033
  38.1481463   2.6516713  66.5571083  37.9684303   1.7542463  66.8373843
  37.7461543   3.1988583  67.2318033  46.9879963   4.8532573  64.4583393
  47.3644783   3.9804453  64.3457063  46.8899473   5.1891273  63.5673833
  41.1184973   3.2258203  59.9200833  41.2251723   4.1261933  60.2269593
  40.2077333   3.1776173  59.6295483  50.7704083   2.3483013  61.3911733
  51.5913703   1.8579583  61.4337213  50.8038163   2.9380673  62.1443573
  38.7668133   5.1477213  65.1653423  39.4478243   5.4115583  65.7840823
  38.4516183   4.3078083  65.4991433  42.9592703   6.1944573  64.2526013
  43.4670923   6.6925543  64.8931033  43.4905943   5.4179773  64.0765373
  55.0603633   4.3649763  67.9555363  54.3555803   4.7531473  67.4370473
  55.3261553   5.0600053  68.5576293  47.6299893  10.9462443  60.0179333
  47.0117163  11.4111893  59.4542053  48.1423143  11.6389923  60.4348843
  42.4931653  10.4738313  66.6962933  42.1601033  11.1007233  67.3384003
  42.6698333  11.0000193  65.9164603  51.0065563   4.2883393  64.1639273
  50.3021133   4.5768283  64.7442383  51.3677723   5.0983503  63.8038833
  40.9244133   2.5453093  66.5259883  41.2660943   3.3895143  66.2313753
  39.9859943   2.6936833  66.6425223  41.7050753  12.4419113  68.5112113
  42.3224753  13.1170193  68.2296563  40.8443873  12.8507093  68.4199613
  36.9983093  11.6318973  57.3918963  36.6211073  12.1206073  56.6603863
  37.2556163  12.3044253  58.0225493  52.6228343  13.9058523  66.4266753
  51.9391863  14.5757633  66.4183423  53.1622633  14.1039173  65.6611613
  54.0752483   3.7338183  64.5548483  53.1277393   3.7677163  64.6863913
  54.4002473   4.5477133  64.9397843  50.1587083  15.7502653  65.1411933
  50.1714243  15.3464943  64.2734193  49.6062303  16.5249943  65.0373363
  51.4532503  12.4718873  60.2302103  51.3428833  11.5293203  60.3551523
  51.4500753  12.8334513  61.1164863  49.5572523  10.6532493  66.4694543
  49.9741313  10.4392603  65.6348003  50.2812343  10.9105283  67.0403163
  46.9952783   8.0984193  59.5864593  46.0682063   8.0321573  59.8153063
  47.1477603   9.0364323  59.4719833  46.9821863   4.3701193  56.5831753
  46.0425533   4.5315153  56.6684213  47.3005123   5.0886873  56.0367743
  53.5034623   9.0519713  66.5610783  52.6753253   9.1212803  66.0860913
  54.0985103   9.6374023  66.0926613  51.0250073   9.6604493  60.0899843
  50.4062493   9.3224043  59.4426143  51.0074523   9.0164253  60.7979033
  50.4676633   5.8389033  67.5065653  50.0547813   6.6642743  67.7605643
  49.7352583   5.2534073  67.3142013  42.6009423   8.6248933  62.3684323
  42.1966423   7.9126183  61.8730223  42.6872543   8.2802173  63.2572363
  43.0691123  12.3116493  64.5323533  42.7719413  11.7061963  63.8531313
  44.0190943  12.3493803  64.4212893  41.3138043   5.3992143  66.1483363
  41.8652633   5.5087483  65.3736613  41.8281553   5.7729743  66.8638593
  51.1576733  15.8848363  68.1946633  50.6807293  16.6920553  68.0019243
  50.4738523  15.2326693  68.3472843  49.2014773   8.8991303  57.0972593
  49.6408053   8.0613733  56.9510413  49.9143193   9.5320703  57.1836733
  47.3110153  13.8387373  61.0653833  47.7506063  14.5811703  60.6509223
  47.2497043  14.0813943  61.9892793  39.3014053   7.5193913  59.8690973
  39.1811653   8.2456003  59.2572243  38.9914943   6.7496823  59.3918883
  36.9399423  10.6909053  65.6759613  37.0179843  10.8257823  64.7315333
  37.5541103   9.9824943  65.8687733  38.1847053  12.3909243  62.0865793
  37.7775133  12.5323833  61.2319393  39.0760063  12.1069403  61.8837003
  48.0025933  16.5401153  68.9932843  48.5170603  16.4509163  69.7955273
  47.1595013  16.8860853  69.2860753  49.9780333  16.8256493  58.4216843
  49.8181473  16.5359433  59.3198673  49.8127043  16.0496623  57.8862073
  42.4568713  16.6055023  60.1988463  42.2811193  15.6890563  59.9856263
  41.6024453  16.9642313  60.4386263  49.6806463  14.3344053  56.9814843
  48.9871623  14.3321343  56.3217123  50.4229323  13.9103373  56.5509013
  49.2456393  15.9606763  61.0563333  49.7013343  15.1796143  61.3701953
  49.5848913  16.6713583  61.6004513  36.9958943  11.7323223  68.2154073
  37.1589983  11.2628583  67.3973443  37.4611393  11.2246783  68.8802913
  46.0547523   3.7297503  68.8549963  45.5926893   3.9380523  69.6669903
  45.6525633   2.9156853  68.5520633  41.5591933   5.9862553  60.9795893
  41.3332853   5.7699723  61.8842513  40.7784463   6.4191013  60.6341863
  48.7889693   5.9925923  59.5786543  48.1898583   6.7161723  59.3950163
  49.3369303   5.9302703  58.7962993  47.3954563   4.6289463  61.6089823
  47.7884133   4.9461663  60.7958513  47.7571413   3.7501343  61.7234343
  36.6188963   5.1610383  55.0422743  36.5363633   6.1041143  55.1837733
  36.2672023   5.0185293  54.1635093  47.9809703   7.2195213  65.7040603
  47.2490823   7.7282023  66.0530703  47.5834043   6.4025193  65.4029383
  44.4187093   3.8949413  64.1093093  44.4223153   3.4539363  63.2597633
  45.3138213   4.2166743  64.2164913  40.2689473   3.7775903  63.0687303
  39.9289523   4.2551133  63.8254353  39.5066793   3.3241023  62.7088403
  44.4807243   4.8961493  57.0999853  44.6020063   4.8547973  58.0485673
  44.0955753   5.7585643  56.9446583  48.4435613   2.6728893  65.1163543
  48.4608353   3.1237543  65.9605393  48.1951193   1.7734533  65.3296983
  43.4928743   7.2062633  56.4983153  42.9245643   6.7580883  55.8719063
  44.2017743   7.5655413  55.9648303  44.7195063   7.9551193  65.8558503
  45.0865193   7.4809763  66.6019843  44.5300123   8.8292763  66.1966843
  37.5835553   2.6994883  61.9851973  37.2982473   2.3350553  62.8230593
  37.5214413   1.9675343  61.3715113  42.5094433   6.9959833  68.1742713
  42.2051503   7.8751813  68.3993073  43.4640893   7.0559623  68.2100153
  41.0376223  11.2020823  58.7709563  40.2638483  10.6618443  58.6108283
  41.7670853  10.6827433  58.4327323  51.7964203  10.1986183  64.5635953
  52.5163323  10.6941473  64.1732063  51.5946023   9.5204073  63.9189823
  49.9722533   5.9643793  57.0027503  50.8602153   6.2761023  56.8278843
  49.9427623   5.0916043  56.6108083  41.0813623  10.8701203  62.4088373
  41.5992293  10.0669463  62.3545263  40.6297643  10.8080343  63.2505203
  45.9683123  12.1367483  57.6815673  46.3098823  12.8809713  57.1858993
  45.1395833  12.4498603  58.0440503  52.2436803   7.2755633  56.4707363
  52.1600523   7.7069853  55.6203803  52.9630993   7.7353983  56.9034183
  53.3210943   9.7323153  69.5477333  52.5959133  10.3251933  69.3506723
  53.8486403   9.7246693  68.7490703  53.2724053  14.1297893  59.1989493
  52.6300213  13.4753513  59.4733213  52.8854713  14.5352983  58.4230163
  48.8510533  11.4583323  63.0461183  49.2034353  10.8611453  62.3862553
  47.9672863  11.1327553  63.2169433  44.9373813  12.2181013  60.4531593
  45.6244943  12.7650223  60.8339183  44.1506233  12.7621743  60.4881203
  37.0766213   7.8353833  55.9448673  37.9461063   8.1178633  56.2284593
  36.5856533   8.6489703  55.8297483  44.2401023   9.2227043  60.0656953
  44.6963803  10.0332293  60.2917143  43.8889233   8.9050183  60.8975443
  46.5433633  14.7333383  67.2949253  47.1875853  14.9392763  67.9722673
  46.9063073  13.9721783  66.8420103  47.8165713  12.7365733  66.0126703
  48.4587943  12.0358893  66.1258873  48.3415063  13.5164173  65.8323593
  51.6621433  13.0214353  55.7365843  51.4359013  12.3044793  56.3290483
  51.2717633  12.7726793  54.8987593  37.4437463  17.0481213  56.5110303
  37.8035103  17.6470553  55.8567573  37.3029803  17.5941103  57.2845333
  51.2437683  10.9386293  57.3980003  50.9559383  11.3998983  58.1857883
  52.0389853  10.4784063  57.6664223  43.4606083  14.4312413  57.3283973
  43.4516183  15.1642103  56.7128483  42.5404443  14.1843993  57.4210933
  39.0612723   9.6527303  58.0730733  38.4540673  10.3926203  58.0826033
  39.5362073   9.7426663  57.2468933  48.6345513   3.8178123  67.7487623
  49.0026333   2.9973333  68.0767193  47.7743713   3.8780013  68.1643273
  52.0007543   2.7735063  58.5575183  51.3720703   2.8780733  57.8433413
  51.5059463   2.9931843  59.3469063  46.4465683  14.4940653  55.9909163
  46.5477663  14.2904643  55.0611143  45.5467423  14.2398933  56.1956943
  43.9691573   5.0521013  59.9733063  43.2607723   5.5207353  60.4146673
  44.2536053   4.3943023  60.6078253  45.5947503   6.4717713  67.9725593
  46.0932753   6.9463533  68.6377443  45.7370453   5.5481233  68.1795623
  48.0007003   1.7771673  61.4128853  47.8774783   1.7957803  60.4638363
  48.9491563   1.8250613  61.5327253  45.0883793  17.0126973  60.6856833
  45.3425293  16.9748363  59.7636203  44.1396273  16.8860303  60.6785083
  42.1726593   3.3606093  57.3483773  43.0217123   3.7976243  57.2823963
  41.8057863   3.6726353  58.1755833  52.8014363   2.6885673  68.8153983
  52.2987963   3.4291073  69.1547793  53.6171023   3.0769673  68.4990773
  51.0936373   7.9318853  62.2615343  50.1526513   7.9469083  62.4363033
  51.4080443   7.1454813  62.7075643  41.0718013   9.6138453  55.8219303
  41.8381283   9.5019813  56.3844733  41.1492703   8.9176423  55.1696073
  39.7664773   7.0463523  56.5052193  39.8468363   6.0991033  56.6169593
  40.6584523   7.3770403  56.6112853  53.0961953  15.1027703  63.9369603
  53.2209373  15.9258873  64.4093413  53.9627513  14.8918433  63.5893753
  40.5679483  17.1958913  63.6086733  41.3041963  16.6474373  63.8795303
  40.9520403  18.0614923  63.4692723  37.4524963  13.2632483  59.4828243
  36.5264743  13.5053623  59.4733653  37.9181393  14.0906743  59.3612993
  43.6781793  16.3689223  55.4312303  44.4710403  16.6578053  54.9794093
  43.1586143  15.9381393  54.7524783  52.7311963  15.5959353  56.8549043
  52.4453473  15.1824493  56.0403223  52.5331513  16.5247063  56.7349563
  44.1959193  11.5892633  55.2954653  44.0909833  10.9744983  56.0216033
  44.0283413  11.0658523  54.5117663  47.4361923  10.6512663  55.8996643
  46.8872023  11.0981963  56.5439383  48.0581183  10.1461913  56.4234313
  43.1037043   9.6103583  57.7961943  43.5253463   9.4443453  58.6393333
  43.2287883   8.8003813  57.3017083  45.6164683   8.6341193  55.0439043
  46.1370343   7.9190213  54.6780193  46.2633083   9.2727063  55.3439553
  44.9257753  10.0090073  68.3370043  45.3445863  10.8522803  68.1646283
  44.0066383  10.1462113  68.1076823  49.6009553   8.2943443  68.2970393
  49.0744773   8.8186063  67.6935533  49.9440893   8.9270833  68.9280123
  41.9995943   5.6836813  54.7420103  41.7985003   4.8204173  55.1033443
  41.8287993   5.5970173  53.8041703  42.7765173  16.3143083  69.4527773
  42.2386263  17.0389143  69.1336473  43.0299133  15.8373423  68.6625113
  40.7978743   2.7837433  54.7297983  41.1004643   2.7904863  53.8217133
  41.5373333   2.4335293  55.2265643  46.1812713  16.7152803  57.3340783
  47.0763503  17.0537773  57.3559543  46.2130343  15.9932213  56.7065063
  39.8208873  12.0879853  55.5627783  40.2583743  12.6309523  56.2185363
  40.3056603  11.2626803  55.5724123  37.0354673  14.8768883  63.0148043
  37.3657683  14.0089943  62.7826683  37.4645673  15.0827403  63.8453003
  41.6316593  13.2077893  60.6750013  41.3312133  13.0842863  61.5753923
  41.5254083  12.3486483  60.2665743  37.5244883  15.7439473  65.7529673
  37.0875873  15.9240273  66.5853823  38.0922563  16.5014093  65.6111393
  54.4008513  12.9874293  55.3776693  53.5701473  13.0550943  55.8483923
  54.5780343  13.8778413  55.0743553  53.8564973   9.7321773  57.8810893
  54.6183883  10.3018423  57.9870583  53.8719343   9.1648973  58.6519203
  37.3569313   8.2559703  62.1118553  36.7018153   7.9871343  61.4678253
  38.1947263   8.1464183  61.6620533  54.8624943  10.5871873  62.7252823
  55.2333773   9.8039193  62.3188793  55.5026873  11.2760973  62.5470123
  51.8458703  11.9708453  68.1383143  51.0318543  12.4005613  68.4008933
  52.2532903  12.5826863  67.5252193  53.9084143  10.0256143  55.0383413
  54.1832983  10.9335023  54.9102633  53.7194883   9.9618673  55.9745403
  50.3059753   3.0500993  56.3337043  50.7244633   2.8631973  55.4933703
  49.9995813   2.1980043  56.6439973  53.8049483   7.9625133  60.0312843
  53.4293083   7.1953063  59.5994133  53.0752603   8.3447833  60.5187773
  38.3945243   8.6412273  66.6521893  38.7618283   8.5539673  67.5317913
  37.8256063   7.8778823  66.5528753  53.1949103   7.1096653  69.6652363
  52.9635193   6.8809403  68.7650313  53.4553653   8.0296203  69.6197253
  36.5707393   5.4658633  58.0543883  35.6671473   5.7288833  57.8795543
  37.0548013   5.7369803  57.2743843  53.0800443   6.1882623  63.3320083
  53.6037923   5.6945273  62.7010253  53.6659863   6.3232983  64.0767653
  53.2590163   6.2722493  66.8539633  52.3092873   6.2386033  66.9684623
  53.4403173   7.1822603  66.6189403  39.1134603   4.5224173  55.9638263
  39.8226303   4.1007393  55.4785543  38.3974543   4.5899403  55.3321613
  52.5700413   5.4455973  59.2712493  53.0659533   5.2126843  60.0561373
  52.3716483   4.6067813  58.8550133  53.9987573   4.0816923  61.8050173
  53.8886853   3.9272963  62.7432443  54.7595163   3.5537863  61.5625583
  54.8877843   1.9124843  55.0456313  55.8127153   1.7806023  54.8374603
  54.8653633   1.9917663  55.9992763  54.9616333   2.6835503  57.6713023
  54.1667833   2.6180623  58.2005933  55.1659613   3.6186143  57.6598373
  51.9034753  16.7227053  61.6651413  52.4993823  16.4011623  60.9885833
  52.1612903  16.2498873  62.4564683  43.5103353  14.7104553  67.4151763
  43.2694713  14.9779113  66.5282283  44.4505993  14.8810283  67.4702623
  54.7707513  16.7298933  68.2162403  54.2765793  17.1267803  67.4989533
  54.1620803  16.1048143  68.6099683  39.6485353  16.1007213  68.9339823
  39.0545673  15.9691913  69.6729863  39.6409193  15.2645353  68.4681923
  52.4546963  17.3722353  65.4949143  51.9949933  18.1238163  65.1207163
  51.8259423  16.6528823  65.4363943  39.2797583  13.4665593  67.8847863
  38.5531643  12.8470883  67.8173813  39.3406733  13.8606203  67.0145943
  42.8842683  15.6810593  64.6697273  43.4007703  15.0697953  64.1445533
  43.5340063  16.1839373  65.1608283  45.6238183  16.5719083  65.4966253
  45.9115993  16.3173383  64.6199263  46.1361403  16.0196443  66.0871823
  37.5627583  16.7839983  61.0944623  37.3949623  16.1510663  61.7926513
  36.6962093  16.9899383  60.7438813  44.7269413   2.7296033  61.5878793
  43.9143923   2.3552923  61.2474673  45.2311053   1.9741113  61.8899983
  39.1690283  15.4773213  58.5394763  38.6437903  15.8581243  57.8356723
  39.0934863  16.1023983  59.2604473  53.9255603  17.0360753  59.8608703
  54.1007793  16.3498493  59.2169623  53.2277173  17.5607803  59.4685373
  41.7683253  17.4255593  57.4144013  42.5002073  17.1414873  56.8667903
  42.0276923  17.1868873  58.3043393  40.9298043  13.5420323  57.4190343
  40.3006923  14.0105423  57.9676173  41.0445873  12.6969543  57.8536533
  48.3847763   7.5925983  43.5691543  48.3041813   6.6780593  43.2983253
  47.9712183   8.0893053  42.8631253  46.5165803   9.3705003  45.4500813
  45.7407903   8.8905443  45.7399383  47.1678733   8.6910653  45.2756973
  40.5331633   9.6824813  46.3276573  39.7016513   9.4273523  46.7273083
  41.1412613   9.7535583  47.0634493  50.5373233  13.7765193  44.2299943
  50.0754763  13.0052433  44.5587113  51.3498783  13.8031263  44.7352393
  40.5132893  13.7164903  46.5234593  40.8160933  12.8262643  46.3444813
  41.2576483  14.2735123  46.2956843  38.9423583   4.6426703  40.1118963
  38.0540283   4.9842673  40.0098843  39.2264773   4.4427023  39.2199793
  36.9056593   7.2432353  45.9958663  37.4772703   6.4754553  45.9962303
  36.9058133   7.5421113  45.0865273  46.7636543  16.0623203  43.8503933
  46.1447983  16.5180703  43.2798373  47.6188323  16.2174663  43.4493633
  45.9574793  12.0462193  45.4570973  45.8883073  11.1052133  45.2960103
  46.7194653  12.1363603  46.0293543  38.1481463   2.6516713  47.7827593
  37.9684303   1.7542463  48.0630353  37.7461543   3.1988583  48.4574543
  46.9879963   4.8532573  45.6839903  47.3644783   3.9804453  45.5713573
  46.8899473   5.1891273  44.7930343  41.1184973   3.2258203  41.1457343
  41.2251723   4.1261933  41.4526103  40.2077333   3.1776173  40.8551993
  50.7704083   2.3483013  42.6168243  51.5913703   1.8579583  42.6593723
  50.8038163   2.9380673  43.3700083  38.7668133   5.1477213  46.3909933
  39.4478243   5.4115583  47.0097333  38.4516183   4.3078083  46.7247943
  42.9592703   6.1944573  45.4782523  43.4670923   6.6925543  46.1187543
  43.4905943   5.4179773  45.3021883  55.0603633   4.3649763  49.1811873
  54.3555803   4.7531473  48.6626983  55.3261553   5.0600053  49.7832803
  47.6299893  10.9462443  41.2435843  47.0117163  11.4111893  40.6798563
  48.1423143  11.6389923  41.6605353  42.4931653  10.4738313  47.9219443
  42.1601033  11.1007233  48.5640513  42.6698333  11.0000193  47.1421113
  51.0065563   4.2883393  45.3895783  50.3021133   4.5768283  45.9698893
  51.3677723   5.0983503  45.0295343  40.9244133   2.5453093  47.7516393
  41.2660943   3.3895143  47.4570263  39.9859943   2.6936833  47.8681733
  41.7050753  12.4419113  49.7368623  42.3224753  13.1170193  49.4553073
  40.8443873  12.8507093  49.6456123  36.9983093  11.6318973  38.6175473
  36.6211073  12.1206073  37.8860373  37.2556163  12.3044253  39.2482003
  52.6228343  13.9058523  47.6523263  51.9391863  14.5757633  47.6439933
  53.1622633  14.1039173  46.8868123  54.0752483   3.7338183  45.7804993
  53.1277393   3.7677163  45.9120423  54.4002473   4.5477133  46.1654353
  50.1587083  15.7502653  46.3668443  50.1714243  15.3464943  45.4990703
  49.6062303  16.5249943  46.2629873  51.4532503  12.4718873  41.4558613
  51.3428833  11.5293203  41.5808033  51.4500753  12.8334513  42.3421373
  49.5572523  10.6532493  47.6951053  49.9741313  10.4392603  46.8604513
  50.2812343  10.9105283  48.2659673  46.9952783   8.0984193  40.8121103
  46.0682063   8.0321573  41.0409573  47.1477603   9.0364323  40.6976343
  46.9821863   4.3701193  37.8088263  46.0425533   4.5315153  37.8940723
  47.3005123   5.0886873  37.2624253  53.5034623   9.0519713  47.7867293
  52.6753253   9.1212803  47.3117423  54.0985103   9.6374023  47.3183123
  51.0250073   9.6604493  41.3156353  50.4062493   9.3224043  40.6682653
  51.0074523   9.0164253  42.0235543  50.4676633   5.8389033  48.7322163
  50.0547813   6.6642743  48.9862153  49.7352583   5.2534073  48.5398523
  42.6009423   8.6248933  43.5940833  42.1966423   7.9126183  43.0986733
  42.6872543   8.2802173  44.4828873  43.0691123  12.3116493  45.7580043
  42.7719413  11.7061963  45.0787823  44.0190943  12.3493803  45.6469403
  41.3138043   5.3992143  47.3739873  41.8652633   5.5087483  46.5993123
  41.8281553   5.7729743  48.0895103  51.1576733  15.8848363  49.4203143
  50.6807293  16.6920553  49.2275753  50.4738523  15.2326693  49.5729353
  42.1609553  12.0498183  52.4087843  41.2638083  12.2738153  52.6561243
  42.1862423  12.1733123  51.4599243  49.2014773   8.8991303  38.3229103
  49.6408053   8.0613733  38.1766923  49.9143193   9.5320703  38.4093243
  40.9880773   8.9211503  50.9845213  40.8488543   9.7934303  51.3532613
  40.1062133   8.5784313  50.8393153  47.3110153  13.8387373  42.2910343
  47.7506063  14.5811703  41.8765733  47.2497043  14.0813943  43.2149303
  42.7861123  14.8633203  53.1930363  42.7576553  15.2676153  52.3258793
  42.6226093  13.9343563  53.0301963  39.3014053   7.5193913  41.0947483
  39.1811653   8.2456003  40.4828753  38.9914943   6.7496823  40.6175393
  54.7375943  15.6460303  54.4894533  55.2135663  16.1243193  55.1683613
  55.3583103  15.5777793  53.7640033  36.9399423  10.6909053  46.9016123
  37.0179843  10.8257823  45.9571843  37.5541103   9.9824943  47.0944243
  38.1847053  12.3909243  43.3122303  37.7775133  12.5323833  42.4575903
  39.0760063  12.1069403  43.1093513  54.1409193  12.8373153  51.6494543
  54.2672253  12.5985033  50.7311723  54.1830573  12.0057693  52.1216623
  48.0025933  16.5401153  50.2189353  48.5170603  16.4509163  51.0211783
  47.1595013  16.8860853  50.5117263  49.9780333  16.8256493  39.6473353
  49.8181473  16.5359433  40.5455183  49.8127043  16.0496623  39.1118583
  42.4568713  16.6055023  41.4244973  42.2811193  15.6890563  41.2112773
  41.6024453  16.9642313  41.6642773  49.6806463  14.3344053  38.2071353
  48.9871623  14.3321343  37.5473633  50.4229323  13.9103373  37.7765523
  49.2456393  15.9606763  42.2819843  49.7013343  15.1796143  42.5958463
  49.5848913  16.6713583  42.8261023  53.9933203   4.8905613  52.6144283
  53.3777473   5.3985283  52.0859743  53.6729623   3.9903943  52.5570223
  36.9958943  11.7323223  49.4410583  37.1589983  11.2628583  48.6229953
  37.4611393  11.2246783  50.1059423  46.0547523   3.7297503  50.0806473
  45.5926893   3.9380523  50.8926413  45.6525633   2.9156853  49.7777143
  51.0552033   4.9506453  51.2103133  50.2045623   4.6512203  51.5312203
  50.8953823   5.1948463  50.2986953  48.1501743   6.4508203  53.3101923
  48.4755153   5.6171953  52.9704153  48.9382073   6.9736723  53.4580253
  41.5591933   5.9862553  42.2052403  41.3332853   5.7699723  43.1099023
  40.7784463   6.4191013  41.8598373  48.7889693   5.9925923  40.8043053
  48.1898583   6.7161723  40.6206673  49.3369303   5.9302703  40.0219503
  43.9991143   6.8848133  52.8712673  43.9034743   5.9442863  52.7213073
  44.8423123   7.1063203  52.4760743  47.3954563   4.6289463  42.8346333
  47.7884133   4.9461663  42.0215023  47.7571413   3.7501343  42.9490853
  39.1301683   3.2961803  51.0246453  38.7365073   4.1437013  51.2319233
  38.4420083   2.6588173  51.2155093  45.7046733   3.3796773  54.0943193
  45.0145053   3.1868973  54.7289283  46.4479033   3.6631413  54.6267493
  36.6188963   5.1610383  36.2679253  36.5363633   6.1041143  36.4094243
  36.2672023   5.0185293  35.3891603  47.9809703   7.2195213  46.9297113
  47.2490823   7.7282023  47.2787213  47.5834043   6.4025193  46.6285893
  44.4187093   3.8949413  45.3349603  44.4223153   3.4539363  44.4854143
  45.3138213   4.2166743  45.4421423  40.2689473   3.7775903  44.2943813
  39.9289523   4.2551133  45.0510863  39.5066793   3.3241023  43.9344913
  44.4807243   4.8961493  38.3256363  44.6020063   4.8547973  39.2742183
  44.0955753   5.7585643  38.1703093  48.4435613   2.6728893  46.3420053
  48.4608353   3.1237543  47.1861903  48.1951193   1.7734533  46.5553493
  43.4928743   7.2062633  37.7239663  42.9245643   6.7580883  37.0975573
  44.2017743   7.5655413  37.1904813  38.5697923  11.1074653  51.6006393
  38.1852713  10.4668323  52.1989353  38.8810113  11.8110773  52.1701123
  44.7195063   7.9551193  47.0815013  45.0865193   7.4809763  47.8276353
  44.5300123   8.8292763  47.4223353  37.5835553   2.6994883  43.2108483
  37.2982473   2.3350553  44.0487103  37.5214413   1.9675343  42.5971623
  42.5094433   6.9959833  49.3999223  42.2051503   7.8751813  49.6249583
  43.4640893   7.0559623  49.4356663  41.0376223  11.2020823  39.9966073
  40.2638483  10.6618443  39.8364793  41.7670853  10.6827433  39.6583833
  51.7964203  10.1986183  45.7892463  52.5163323  10.6941473  45.3988573
  51.5946023   9.5204073  45.1446333  47.1783003  10.2695243  51.6761463
  47.1120313   9.3490913  51.4219053  46.5488143  10.3670683  52.3906103
  49.9722533   5.9643793  38.2284013  50.8602153   6.2761023  38.0535353
  49.9427623   5.0916043  37.8364593  41.0813623  10.8701203  43.6344883
  41.5992293  10.0669463  43.5801773  40.6297643  10.8080343  44.4761713
  45.9683123  12.1367483  38.9072183  46.3098823  12.8809713  38.4115503
  45.1395833  12.4498603  39.2697013  38.5658163   7.8362573  50.5470583
  38.2073103   8.5016423  51.1343923  38.2712723   7.0046123  50.9183203
  41.7671283   8.2946813  53.4310133  41.4671423   8.4403993  52.5337953
  42.5382523   7.7352103  53.3383523  47.1099733  13.0915813  51.4265263
  47.1244273  12.1596773  51.2084173  46.4024833  13.1775573  52.0655033
  52.2436803   7.2755633  37.6963873  52.1600523   7.7069853  36.8460313
  52.9630993   7.7353983  38.1290693  53.3210943   9.7323153  50.7733843
  52.5959133  10.3251933  50.5763233  53.8486403   9.7246693  49.9747213
  53.2724053  14.1297893  40.4246003  52.6300213  13.4753513  40.6989723
  52.8854713  14.5352983  39.6486673  48.8510533  11.4583323  44.2717693
  49.2034353  10.8611453  43.6119063  47.9672863  11.1327553  44.4425943
  44.9373813  12.2181013  41.6788103  45.6244943  12.7650223  42.0595693
  44.1506233  12.7621743  41.7137713  37.0766213   7.8353833  37.1705183
  37.9461063   8.1178633  37.4541103  36.5856533   8.6489703  37.0553993
  44.2401023   9.2227043  41.2913463  44.6963803  10.0332293  41.5173653
  43.8889233   8.9050183  42.1231953  46.5433633  14.7333383  48.5205763
  47.1875853  14.9392763  49.1979183  46.9063073  13.9721783  48.0676613
  47.8165713  12.7365733  47.2383213  48.4587943  12.0358893  47.3515383
  48.3415063  13.5164173  47.0580103  51.6621433  13.0214353  36.9622353
  51.4359013  12.3044793  37.5546993  51.2717633  12.7726793  36.1244103
  49.5903333  13.5360633  50.4419273  49.9259573  14.1227323  51.1197193
  48.6703673  13.4053343  50.6717063  37.4437463  17.0481213  37.7366813
  37.8035103  17.6470553  37.0824083  37.3029803  17.5941103  38.5101843
  51.2437683  10.9386293  38.6236513  50.9559383  11.3998983  39.4114393
  52.0389853  10.4784063  38.8920733  37.4279323  15.3136073  52.2109213
  37.5370443  14.3730813  52.0704603  36.7759883  15.5790823  51.5622943
  45.4191913  13.5851963  53.6107333  45.0988783  12.8661203  54.1553023
  44.7450273  14.2607033  53.6843393  43.4606083  14.4312413  38.5540483
  43.4516183  15.1642103  37.9384993  42.5404443  14.1843993  38.6467443
  39.0612723   9.6527303  39.2987243  38.4540673  10.3926203  39.3082543
  39.5362073   9.7426663  38.4725443  48.6345513   3.8178123  48.9744133
  49.0026333   2.9973333  49.3023703  47.7743713   3.8780013  49.3899783
  52.0007543   2.7735063  39.7831693  51.3720703   2.8780733  39.0689923
  51.5059463   2.9931843  40.5725573  46.4465683  14.4940653  37.2165673
  46.5477663  14.2904643  36.2867653  45.5467423  14.2398933  37.4213453
  43.9691573   5.0521013  41.1989573  43.2607723   5.5207353  41.6403183
  44.2536053   4.3943023  41.8334763  45.5947503   6.4717713  49.1982103
  46.0932753   6.9463533  49.8633953  45.7370453   5.5481233  49.4052133
  48.0007003   1.7771673  42.6385363  47.8774783   1.7957803  41.6894873
  48.9491563   1.8250613  42.7583763  45.0883793  17.0126973  41.9113343
  45.3425293  16.9748363  40.9892713  44.1396273  16.8860303  41.9041593
  42.1726593   3.3606093  38.5740283  43.0217123   3.7976243  38.5080473
  41.8057863   3.6726353  39.4012343  52.8014363   2.6885673  50.0410493
  52.2987963   3.4291073  50.3804303  53.6171023   3.0769673  49.7247283
  51.0936373   7.9318853  43.4871853  50.1526513   7.9469083  43.6619543
  51.4080443   7.1454813  43.9332153  41.0718013   9.6138453  37.0475813
  41.8381283   9.5019813  37.6101243  41.1492703   8.9176423  36.3952583
  39.7664773   7.0463523  37.7308703  39.8468363   6.0991033  37.8426103
  40.6584523   7.3770403  37.8369363  53.0961953  15.1027703  45.1626113
  53.2209373  15.9258873  45.6349923  53.9627513  14.8918433  44.8150263
  40.5679483  17.1958913  44.8343243  41.3041963  16.6474373  45.1051813
  40.9520403  18.0614923  44.6949233  37.4524963  13.2632483  40.7084753
  36.5264743  13.5053623  40.6990163  37.9181393  14.0906743  40.5869503
  39.5737763  16.3804983  54.0228823  40.3750493  16.7017033  54.4364223
  39.0589583  16.0200563  54.7448733  43.6781793  16.3689223  36.6568813
  44.4710403  16.6578053  36.2050603  43.1586143  15.9381393  35.9781293
  48.4102393  12.4884853  53.9704233  47.8040553  12.5116453  53.2299983
  48.1056503  11.7567893  54.5071483  49.8402763  16.2165143  52.5813643
  50.7924513  16.1323163  52.5313883  49.6930983  16.8806853  53.2547433
  52.7311963  15.5959353  38.0805553  52.4453473  15.1824493  37.2659733
  52.5331513  16.5247063  37.9606073  37.2935573   8.8678443  52.9664873
  37.7974593   8.2885723  53.5381103  36.5542993   9.1518673  53.5041243
  44.1959193  11.5892633  36.5211163  44.0909833  10.9744983  37.2472543
  44.0283413  11.0658523  35.7374173  44.3473513  10.2749433  52.5000393
  43.5819183  10.8434433  52.4155063  44.5289473   9.9825643  51.6068623
  47.4361923  10.6512663  37.1253153  46.8872023  11.0981963  37.7695893
  48.0581183  10.1461913  37.6490823  51.4896863  12.0054763  53.0575413
  52.2306333  12.3430523  52.5542873  50.7269543  12.1746823  52.5045183
  39.3258653   7.0108033  53.8614943  39.3663993   6.7121903  54.7700173
  40.1804153   7.4115643  53.7022463  43.1037043   9.6103583  39.0218453
  43.5253463   9.4443453  39.8649843  43.2287883   8.8003813  38.5273593
  41.2664463   5.5900133  51.8289433  40.7360923   5.0991083  51.2012773
  41.9352533   6.0184333  51.2947363  45.6164683   8.6341193  36.2695553
  46.1370343   7.9190213  35.9036703  46.2633083   9.2727063  36.5696063
  50.1642523  10.0569593  51.5930623  50.5783543  10.2114673  52.4421043
  49.2293523  10.1824813  51.7556403  50.6364693   7.3965753  53.5969773
  51.2185463   6.6418073  53.5090253  50.8126463   7.9273193  52.8201253
  41.7536763   2.5562503  51.9086723  41.6593633   1.9383253  51.1837593
  41.1734153   3.2828793  51.6816633  44.9257753  10.0090073  49.5626553
  45.3445863  10.8522803  49.3902793  44.0066383  10.1462113  49.3333333
  47.2621653   7.7406253  50.9464393  47.3817863   7.1447393  51.6859233
  48.1215653   7.7775943  50.5265693  49.6009553   8.2943443  49.5226903
  49.0744773   8.8186063  48.9192043  49.9440893   8.9270833  50.1536633
  41.9995943   5.6836813  35.9676613  41.7985003   4.8204173  36.3289953
  41.8287993   5.5970173  35.0298213  42.7765173  16.3143083  50.6784283
  42.2386263  17.0389143  50.3592983  43.0299133  15.8373423  49.8881623
  44.0290423   4.2827603  52.2040213  44.6190113   3.9743453  52.8918033
  43.2110663   3.8107353  52.3600113  48.8483853   3.8993413  52.4373233
  48.1599373   3.2374953  52.3723223  49.5689873   3.4531683  52.8821693
  40.7978743   2.7837433  35.9554493  41.1004643   2.7904863  35.0473643
  41.5373333   2.4335293  36.4522153  45.6327383  17.5494293  50.9370933
  45.5586083  18.4529433  51.2443303  44.7306223  17.2306193  50.9093003
  46.1812713  16.7152803  38.5597293  47.0763503  17.0537773  38.5816053
  46.2130343  15.9932213  37.9321573  39.8208873  12.0879853  36.7884293
  40.2583743  12.6309523  37.4441873  40.3056603  11.2626803  36.7980633
  37.0354673  14.8768883  44.2404553  37.3657683  14.0089943  44.0083193
  37.4645673  15.0827403  45.0709513  41.6316593  13.2077893  41.9006523
  41.3312133  13.0842863  42.8010433  41.5254083  12.3486483  41.4922253
  37.5244883  15.7439473  46.9786183  37.0875873  15.9240273  47.8110333
  38.0922563  16.5014093  46.8367903  53.1607063  15.2456473  51.2663493
  52.5609053  15.3049033  50.5227413  53.2900963  14.3061453  51.3960343
  54.4008513  12.9874293  36.6033203  53.5701473  13.0550943  37.0740433
  54.5780343  13.8778413  36.3000063  53.8564973   9.7321773  39.1067403
  54.6183883  10.3018423  39.2127093  53.8719343   9.1648973  39.8775713
  37.3569313   8.2559703  43.3375063  36.7018153   7.9871343  42.6934763
  38.1947263   8.1464183  42.8877043  54.8624943  10.5871873  43.9509333
  55.2333773   9.8039193  43.5445303  55.5026873  11.2760973  43.7726633
  51.8458703  11.9708453  49.3639653  51.0318543  12.4005613  49.6265443
  52.2532903  12.5826863  48.7508703  53.9084143  10.0256143  36.2639923
  54.1832983  10.9335023  36.1359143  53.7194883   9.9618673  37.2001913
  50.3059753   3.0500993  37.5593553  50.7244633   2.8631973  36.7190213
  49.9995813   2.1980043  37.8696483  53.8049483   7.9625133  41.2569353
  53.4293083   7.1953063  40.8250643  53.0752603   8.3447833  41.7444283
  38.3945243   8.6412273  47.8778403  38.7618283   8.5539673  48.7574423
  37.8256063   7.8778823  47.7785263  53.1949103   7.1096653  50.8908873
  52.9635193   6.8809403  49.9906823  53.4553653   8.0296203  50.8453763
  37.9461243   5.5521363  51.7836823  37.0517293   5.5188123  52.1230533
  38.4858793   5.7508153  52.5488073  36.5707393   5.4658633  39.2800393
  35.6671473   5.7288833  39.1052053  37.0548013   5.7369803  38.5000353
  53.0800443   6.1882623  44.5576593  53.6037923   5.6945273  43.9266763
  53.6659863   6.3232983  45.3024163  53.2590163   6.2722493  48.0796143
  52.3092873   6.2386033  48.1941133  53.4403173   7.1822603  47.8445913
  39.1134603   4.5224173  37.1894773  39.8226303   4.1007393  36.7042053
  38.3974543   4.5899403  36.5578123  52.5700413   5.4455973  40.4969003
  53.0659533   5.2126843  41.2817883  52.3716483   4.6067813  40.0806643
  53.9987573   4.0816923  43.0306683  53.8886853   3.9272963  43.9688953
  54.7595163   3.5537863  42.7882093  54.8877843   1.9124843  36.2712823
  55.8127153   1.7806023  36.0631113  54.8653633   1.9917663  37.2249273
  54.9616333   2.6835503  38.8969533  54.1667833   2.6180623  39.4262443
  55.1659613   3.6186143  38.8854883  51.9034753  16.7227053  42.8907923
  52.4993823  16.4011623  42.2142343  52.1612903  16.2498873  43.6821193
  39.8097323  13.1544963  53.0398553  39.7666953  12.7837873  53.9213013
  39.9408333  14.0922533  53.1800373  43.5103353  14.7104553  48.6408273
  43.2694713  14.9779113  47.7538793  44.4505993  14.8810283  48.6959133
  54.7707513  16.7298933  49.4418913  54.2765793  17.1267803  48.7246043
  54.1620803  16.1048143  49.8356193  39.6485353  16.1007213  50.1596333
  39.0545673  15.9691913  50.8986373  39.6409193  15.2645353  49.6938433
  52.4546963  17.3722353  46.7205653  51.9949933  18.1238163  46.3463673
  51.8259423  16.6528823  46.6620453  39.2797583  13.4665593  49.1104373
  38.5531643  12.8470883  49.0430323  39.3406733  13.8606203  48.2402453
  42.8842683  15.6810593  45.8953783  43.4007703  15.0697953  45.3702043
  43.5340063  16.1839373  46.3864793  45.6238183  16.5719083  46.7222763
  45.9115993  16.3173383  45.8455773  46.1361403  16.0196443  47.3128333
  37.5627583  16.7839983  42.3201133  37.3949623  16.1510663  43.0183023
  36.6962093  16.9899383  41.9695323  44.7269413   2.7296033  42.8135303
  43.9143923   2.3552923  42.4731183  45.2311053   1.9741113  43.1156493
  39.1690283  15.4773213  39.7651273  38.6437903  15.8581243  39.0613233
  39.0934863  16.1023983  40.4860983  45.6910543  17.4935183  54.0890963
  46.6177853  17.2579453  54.1326923  45.6760973  18.3207183  53.6076993
  53.9255603  17.0360753  41.0865213  54.1007793  16.3498493  40.4426133
  53.2277173  17.5607803  40.6941883  41.7683253  17.4255593  38.6400523
  42.5002073  17.1414873  38.0924413  42.0276923  17.1868873  39.5299903
  40.9298043  13.5420323  38.6446853  40.3006923  14.0105423  39.1932683
  41.0445873  12.6969543  39.0793043  52.2588103  16.7205043  53.9132003
  53.0513423  16.2254273  53.7057963  52.5521253  17.3995183  54.5207613
  48.3847763   7.5925983  24.7948053  48.3041813   6.6780593  24.5239763
  47.9712183   8.0893053  24.0887763  46.5165803   9.3705003  26.6757323
  45.7407903   8.8905443  26.9655893  47.1678733   8.6910653  26.5013483
  40.5331633   9.6824813  27.5533083  39.7016513   9.4273523  27.9529593
  41.1412613   9.7535583  28.2891003  50.5373233  13.7765193  25.4556453
  50.0754763  13.0052433  25.7843623  51.3498783  13.8031263  25.9608903
  40.5132893  13.7164903  27.7491103  40.8160933  12.8262643  27.5701323
  41.2576483  14.2735123  27.5213353  38.9423583   4.6426703  21.3375473
  38.0540283   4.9842673  21.2355353  39.2264773   4.4427023  20.4456303
  36.9056593   7.2432353  27.2215173  37.4772703   6.4754553  27.2218813
  36.9058133   7.5421113  26.3121783  46.7636543  16.0623203  25.0760443
  46.1447983  16.5180703  24.5054883  47.6188323  16.2174663  24.6750143
  45.9574793  12.0462193  26.6827483  45.8883073  11.1052133  26.5216613
  46.7194653  12.1363603  27.2550053  38.1481463   2.6516713  29.0084103
  37.9684303   1.7542463  29.2886863  37.7461543   3.1988583  29.6831053
  46.9879963   4.8532573  26.9096413  47.3644783   3.9804453  26.7970083
  46.8899473   5.1891273  26.0186853  41.1184973   3.2258203  22.3713853
  41.2251723   4.1261933  22.6782613  40.2077333   3.1776173  22.0808503
  50.7704083   2.3483013  23.8424753  51.5913703   1.8579583  23.8850233
  50.8038163   2.9380673  24.5956593  38.7668133   5.1477213  27.6166443
  39.4478243   5.4115583  28.2353843  38.4516183   4.3078083  27.9504453
  42.9592703   6.1944573  26.7039033  43.4670923   6.6925543  27.3444053
  43.4905943   5.4179773  26.5278393  55.0603633   4.3649763  30.4068383
  54.3555803   4.7531473  29.8883493  55.3261553   5.0600053  31.0089313
  47.6299893  10.9462443  22.4692353  47.0117163  11.4111893  21.9055073
  48.1423143  11.6389923  22.8861863  42.4931653  10.4738313  29.1475953
  42.1601033  11.1007233  29.7897023  42.6698333  11.0000193  28.3677623
  51.0065563   4.2883393  26.6152293  50.3021133   4.5768283  27.1955403
  51.3677723   5.0983503  26.2551853  40.9244133   2.5453093  28.9772903
  41.2660943   3.3895143  28.6826773  39.9859943   2.6936833  29.0938243
  41.7050753  12.4419113  30.9625133  42.3224753  13.1170193  30.6809583
  40.8443873  12.8507093  30.8712633  36.9983093  11.6318973  19.8431983
  36.6211073  12.1206073  19.1116883  37.2556163  12.3044253  20.4738513
  52.6228343  13.9058523  28.8779773  51.9391863  14.5757633  28.8696443
  53.1622633  14.1039173  28.1124633  54.0752483   3.7338183  27.0061503
  53.1277393   3.7677163  27.1376933  54.4002473   4.5477133  27.3910863
  50.1587083  15.7502653  27.5924953  50.1714243  15.3464943  26.7247213
  49.6062303  16.5249943  27.4886383  51.4532503  12.4718873  22.6815123
  51.3428833  11.5293203  22.8064543  51.4500753  12.8334513  23.5677883
  49.5572523  10.6532493  28.9207563  49.9741313  10.4392603  28.0861023
  50.2812343  10.9105283  29.4916183  46.9952783   8.0984193  22.0377613
  46.0682063   8.0321573  22.2666083  47.1477603   9.0364323  21.9232853
  46.9821863   4.3701193  19.0344773  46.0425533   4.5315153  19.1197233
  47.3005123   5.0886873  18.4880763  53.5034623   9.0519713  29.0123803
  52.6753253   9.1212803  28.5373933  54.0985103   9.6374023  28.5439633
  51.0250073   9.6604493  22.5412863  50.4062493   9.3224043  21.8939163
  51.0074523   9.0164253  23.2492053  50.4676633   5.8389033  29.9578673
  50.0547813   6.6642743  30.2118663  49.7352583   5.2534073  29.7655033
  42.6009423   8.6248933  24.8197343  42.1966423   7.9126183  24.3243243
  42.6872543   8.2802173  25.7085383  43.0691123  12.3116493  26.9836553
  42.7719413  11.7061963  26.3044333  44.0190943  12.3493803  26.8725913
  41.3138043   5.3992143  28.5996383  41.8652633   5.5087483  27.8249633
  41.8281553   5.7729743  29.3151613  51.1576733  15.8848363  30.6459653
  50.6807293  16.6920553  30.4532263  50.4738523  15.2326693  30.7985863
  42.1609553  12.0498183  33.6344353  41.2638083  12.2738153  33.8817753
  42.1862423  12.1733123  32.6855753  49.2014773   8.8991303  19.5485613
  49.6408053   8.0613733  19.4023433  49.9143193   9.5320703  19.6349753
  40.9880773   8.9211503  32.2101723  40.8488543   9.7934303  32.5789123
  40.1062133   8.5784313  32.0649663  47.3110153  13.8387373  23.5166853
  47.7506063  14.5811703  23.1022243  47.2497043  14.0813943  24.4405813
  42.7861123  14.8633203  34.4186873  42.7576553  15.2676153  33.5515303
  42.6226093  13.9343563  34.2558473  39.3014053   7.5193913  22.3203993
  39.1811653   8.2456003  21.7085263  38.9914943   6.7496823  21.8431903
  54.7375943  15.6460303  35.7151043  55.2135663  16.1243193  36.3940123
  55.3583103  15.5777793  34.9896543  36.9399423  10.6909053  28.1272633
  37.0179843  10.8257823  27.1828353  37.5541103   9.9824943  28.3200753
  38.1847053  12.3909243  24.5378813  37.7775133  12.5323833  23.6832413
  39.0760063  12.1069403  24.3350023  54.1409193  12.8373153  32.8751053
  54.2672253  12.5985033  31.9568233  54.1830573  12.0057693  33.3473133
  48.0025933  16.5401153  31.4445863  48.5170603  16.4509163  32.2468293
  47.1595013  16.8860853  31.7373773  49.9780333  16.8256493  20.8729863
  49.8181473  16.5359433  21.7711693  49.8127043  16.0496623  20.3375093
  42.4568713  16.6055023  22.6501483  42.2811193  15.6890563  22.4369283
  41.6024453  16.9642313  22.8899283  49.6806463  14.3344053  19.4327863
  48.9871623  14.3321343  18.7730143  50.4229323  13.9103373  19.0022033
  49.2456393  15.9606763  23.5076353  49.7013343  15.1796143  23.8214973
  49.5848913  16.6713583  24.0517533  53.9933203   4.8905613  33.8400793
  53.3777473   5.3985283  33.3116253  53.6729623   3.9903943  33.7826733
  36.9958943  11.7323223  30.6667093  37.1589983  11.2628583  29.8486463
  37.4611393  11.2246783  31.3315933  46.0547523   3.7297503  31.3062983
  45.5926893   3.9380523  32.1182923  45.6525633   2.9156853  31.0033653
  51.0552033   4.9506453  32.4359643  50.2045623   4.6512203  32.7568713
  50.8953823   5.1948463  31.5243463  48.1501743   6.4508203  34.5358433
  48.4755153   5.6171953  34.1960663  48.9382073   6.9736723  34.6836763
  41.5591933   5.9862553  23.4308913  41.3332853   5.7699723  24.3355533
  40.7784463   6.4191013  23.0854883  48.7889693   5.9925923  22.0299563
  48.1898583   6.7161723  21.8463183  49.3369303   5.9302703  21.2476013
  43.9991143   6.8848133  34.0969183  43.9034743   5.9442863  33.9469583
  44.8423123   7.1063203  33.7017253  47.3954563   4.6289463  24.0602843
  47.7884133   4.9461663  23.2471533  47.7571413   3.7501343  24.1747363
  39.1301683   3.2961803  32.2502963  38.7365073   4.1437013  32.4575743
  38.4420083   2.6588173  32.4411603  45.7046733   3.3796773  35.3199703
  45.0145053   3.1868973  35.9545793  46.4479033   3.6631413  35.8524003
  36.6188963   5.1610383  17.4935763  36.5363633   6.1041143  17.6350753
  36.2672023   5.0185293  16.6148113  47.9809703   7.2195213  28.1553623
  47.2490823   7.7282023  28.5043723  47.5834043   6.4025193  27.8542403
  44.4187093   3.8949413  26.5606113  44.4223153   3.4539363  25.7110653
  45.3138213   4.2166743  26.6677933  40.2689473   3.7775903  25.5200323
  39.9289523   4.2551133  26.2767373  39.5066793   3.3241023  25.1601423
  44.4807243   4.8961493  19.5512873  44.6020063   4.8547973  20.4998693
  44.0955753   5.7585643  19.3959603  48.4435613   2.6728893  27.5676563
  48.4608353   3.1237543  28.4118413  48.1951193   1.7734533  27.7810003
  43.4928743   7.2062633  18.9496173  42.9245643   6.7580883  18.3232083
  44.2017743   7.5655413  18.4161323  38.5697923  11.1074653  32.8262903
  38.1852713  10.4668323  33.4245863  38.8810113  11.8110773  33.3957633
  44.7195063   7.9551193  28.3071523  45.0865193   7.4809763  29.0532863
  44.5300123   8.8292763  28.6479863  37.5835553   2.6994883  24.4364993
  37.2982473   2.3350553  25.2743613  37.5214413   1.9675343  23.8228133
  42.5094433   6.9959833  30.6255733  42.2051503   7.8751813  30.8506093
  43.4640893   7.0559623  30.6613173  41.0376223  11.2020823  21.2222583
  40.2638483  10.6618443  21.0621303  41.7670853  10.6827433  20.8840343
  51.7964203  10.1986183  27.0148973  52.5163323  10.6941473  26.6245083
  51.5946023   9.5204073  26.3702843  47.1783003  10.2695243  32.9017973
  47.1120313   9.3490913  32.6475563  46.5488143  10.3670683  33.6162613
  49.9722533   5.9643793  19.4540523  50.8602153   6.2761023  19.2791863
  49.9427623   5.0916043  19.0621103  41.0813623  10.8701203  24.8601393
  41.5992293  10.0669463  24.8058283  40.6297643  10.8080343  25.7018223
  45.9683123  12.1367483  20.1328693  46.3098823  12.8809713  19.6372013
  45.1395833  12.4498603  20.4953523  38.5658163   7.8362573  31.7727093
  38.2073103   8.5016423  32.3600433  38.2712723   7.0046123  32.1439713
  41.7671283   8.2946813  34.6566643  41.4671423   8.4403993  33.7594463
  42.5382523   7.7352103  34.5640033  47.1099733  13.0915813  32.6521773
  47.1244273  12.1596773  32.4340683  46.4024833  13.1775573  33.2911543
  52.2436803   7.2755633  18.9220383  52.1600523   7.7069853  18.0716823
  52.9630993   7.7353983  19.3547203  53.3210943   9.7323153  31.9990353
  52.5959133  10.3251933  31.8019743  53.8486403   9.7246693  31.2003723
  53.2724053  14.1297893  21.6502513  52.6300213  13.4753513  21.9246233
  52.8854713  14.5352983  20.8743183  48.8510533  11.4583323  25.4974203
  49.2034353  10.8611453  24.8375573  47.9672863  11.1327553  25.6682453
  44.9373813  12.2181013  22.9044613  45.6244943  12.7650223  23.2852203
  44.1506233  12.7621743  22.9394223  37.0766213   7.8353833  18.3961693
  37.9461063   8.1178633  18.6797613  36.5856533   8.6489703  18.2810503
  44.2401023   9.2227043  22.5169973  44.6963803  10.0332293  22.7430163
  43.8889233   8.9050183  23.3488463  46.5433633  14.7333383  29.7462273
  47.1875853  14.9392763  30.4235693  46.9063073  13.9721783  29.2933123
  47.8165713  12.7365733  28.4639723  48.4587943  12.0358893  28.5771893
  48.3415063  13.5164173  28.2836613  51.6621433  13.0214353  18.1878863
  51.4359013  12.3044793  18.7803503  51.2717633  12.7726793  17.3500613
  49.5903333  13.5360633  31.6675783  49.9259573  14.1227323  32.3453703
  48.6703673  13.4053343  31.8973573  37.4437463  17.0481213  18.9623323
  37.8035103  17.6470553  18.3080593  37.3029803  17.5941103  19.7358353
  51.2437683  10.9386293  19.8493023  50.9559383  11.3998983  20.6370903
  52.0389853  10.4784063  20.1177243  37.4279323  15.3136073  33.4365723
  37.5370443  14.3730813  33.2961113  36.7759883  15.5790823  32.7879453
  45.4191913  13.5851963  34.8363843  45.0988783  12.8661203  35.3809533
  44.7450273  14.2607033  34.9099903  43.4606083  14.4312413  19.7796993
  43.4516183  15.1642103  19.1641503  42.5404443  14.1843993  19.8723953
  39.0612723   9.6527303  20.5243753  38.4540673  10.3926203  20.5339053
  39.5362073   9.7426663  19.6981953  48.6345513   3.8178123  30.2000643
  49.0026333   2.9973333  30.5280213  47.7743713   3.8780013  30.6156293
  52.0007543   2.7735063  21.0088203  51.3720703   2.8780733  20.2946433
  51.5059463   2.9931843  21.7982083  46.4465683  14.4940653  18.4422183
  46.5477663  14.2904643  17.5124163  45.5467423  14.2398933  18.6469963
  43.9691573   5.0521013  22.4246083  43.2607723   5.5207353  22.8659693
  44.2536053   4.3943023  23.0591273  45.5947503   6.4717713  30.4238613
  46.0932753   6.9463533  31.0890463  45.7370453   5.5481233  30.6308643
  48.0007003   1.7771673  23.8641873  47.8774783   1.7957803  22.9151383
  48.9491563   1.8250613  23.9840273  45.0883793  17.0126973  23.1369853
  45.3425293  16.9748363  22.2149223  44.1396273  16.8860303  23.1298103
  42.1726593   3.3606093  19.7996793  43.0217123   3.7976243  19.7336983
  41.8057863   3.6726353  20.6268853  52.8014363   2.6885673  31.2667003
  52.2987963   3.4291073  31.6060813  53.6171023   3.0769673  30.9503793
  51.0936373   7.9318853  24.7128363  50.1526513   7.9469083  24.8876053
  51.4080443   7.1454813  25.1588663  41.0718013   9.6138453  18.2732323
  41.8381283   9.5019813  18.8357753  41.1492703   8.9176423  17.6209093
  39.7664773   7.0463523  18.9565213  39.8468363   6.0991033  19.0682613
  40.6584523   7.3770403  19.0625873  53.0961953  15.1027703  26.3882623
  53.2209373  15.9258873  26.8606433  53.9627513  14.8918433  26.0406773
  40.5679483  17.1958913  26.0599753  41.3041963  16.6474373  26.3308323
  40.9520403  18.0614923  25.9205743  37.4524963  13.2632483  21.9341263
  36.5264743  13.5053623  21.9246673  37.9181393  14.0906743  21.8126013
  39.5737763  16.3804983  35.2485333  40.3750493  16.7017033  35.6620733
  39.0589583  16.0200563  35.9705243  43.6781793  16.3689223  17.8825323
  44.4710403  16.6578053  17.4307113  43.1586143  15.9381393  17.2037803
  48.4102393  12.4884853  35.1960743  47.8040553  12.5116453  34.4556493
  48.1056503  11.7567893  35.7327993  49.8402763  16.2165143  33.8070153
  50.7924513  16.1323163  33.7570393  49.6930983  16.8806853  34.4803943
  52.7311963  15.5959353  19.3062063  52.4453473  15.1824493  18.4916243
  52.5331513  16.5247063  19.1862583  37.2935573   8.8678443  34.1921383
  37.7974593   8.2885723  34.7637613  36.5542993   9.1518673  34.7297753
  44.1959193  11.5892633  17.7467673  44.0909833  10.9744983  18.4729053
  44.0283413  11.0658523  16.9630683  44.3473513  10.2749433  33.7256903
  43.5819183  10.8434433  33.6411573  44.5289473   9.9825643  32.8325133
  47.4361923  10.6512663  18.3509663  46.8872023  11.0981963  18.9952403
  48.0581183  10.1461913  18.8747333  51.4896863  12.0054763  34.2831923
  52.2306333  12.3430523  33.7799383  50.7269543  12.1746823  33.7301693
  39.3258653   7.0108033  35.0871453  39.3663993   6.7121903  35.9956683
  40.1804153   7.4115643  34.9278973  43.1037043   9.6103583  20.2474963
  43.5253463   9.4443453  21.0906353  43.2287883   8.8003813  19.7530103
  41.2664463   5.5900133  33.0545943  40.7360923   5.0991083  32.4269283
  41.9352533   6.0184333  32.5203873  45.6164683   8.6341193  17.4952063
  46.1370343   7.9190213  17.1293213  46.2633083   9.2727063  17.7952573
  50.1642523  10.0569593  32.8187133  50.5783543  10.2114673  33.6677553
  49.2293523  10.1824813  32.9812913  50.6364693   7.3965753  34.8226283
  51.2185463   6.6418073  34.7346763  50.8126463   7.9273193  34.0457763
  41.7536763   2.5562503  33.1343233  41.6593633   1.9383253  32.4094103
  41.1734153   3.2828793  32.9073143  44.9257753  10.0090073  30.7883063
  45.3445863  10.8522803  30.6159303  44.0066383  10.1462113  30.5589843
  47.2621653   7.7406253  32.1720903  47.3817863   7.1447393  32.9115743
  48.1215653   7.7775943  31.7522203  49.6009553   8.2943443  30.7483413
  49.0744773   8.8186063  30.1448553  49.9440893   8.9270833  31.3793143
  41.9995943   5.6836813  17.1933123  41.7985003   4.8204173  17.5546463
  41.8287993   5.5970173  16.2554723  42.7765173  16.3143083  31.9040793
  42.2386263  17.0389143  31.5849493  43.0299133  15.8373423  31.1138133
  44.0290423   4.2827603  33.4296723  44.6190113   3.9743453  34.1174543
  43.2110663   3.8107353  33.5856623  48.8483853   3.8993413  33.6629743
  48.1599373   3.2374953  33.5979733  49.5689873   3.4531683  34.1078203
  40.7978743   2.7837433  17.1811003  41.1004643   2.7904863  16.2730153
  41.5373333   2.4335293  17.6778663  45.6327383  17.5494293  32.1627443
  45.5586083  18.4529433  32.4699813  44.7306223  17.2306193  32.1349513
  46.1812713  16.7152803  19.7853803  47.0763503  17.0537773  19.8072563
  46.2130343  15.9932213  19.1578083  39.8208873  12.0879853  18.0140803
  40.2583743  12.6309523  18.6698383  40.3056603  11.2626803  18.0237143
  37.0354673  14.8768883  25.4661063  37.3657683  14.0089943  25.2339703
  37.4645673  15.0827403  26.2966023  41.6316593  13.2077893  23.1263033
  41.3312133  13.0842863  24.0266943  41.5254083  12.3486483  22.7178763
  37.5244883  15.7439473  28.2042693  37.0875873  15.9240273  29.0366843
  38.0922563  16.5014093  28.0624413  53.1607063  15.2456473  32.4920003
  52.5609053  15.3049033  31.7483923  53.2900963  14.3061453  32.6216853
  54.4008513  12.9874293  17.8289713  53.5701473  13.0550943  18.2996943
  54.5780343  13.8778413  17.5256573  53.8564973   9.7321773  20.3323913
  54.6183883  10.3018423  20.4383603  53.8719343   9.1648973  21.1032223
  37.3569313   8.2559703  24.5631573  36.7018153   7.9871343  23.9191273
  38.1947263   8.1464183  24.1133553  54.8624943  10.5871873  25.1765843
  55.2333773   9.8039193  24.7701813  55.5026873  11.2760973  24.9983143
  51.8458703  11.9708453  30.5896163  51.0318543  12.4005613  30.8521953
  52.2532903  12.5826863  29.9765213  53.9084143  10.0256143  17.4896433
  54.1832983  10.9335023  17.3615653  53.7194883   9.9618673  18.4258423
  50.3059753   3.0500993  18.7850063  50.7244633   2.8631973  17.9446723
  49.9995813   2.1980043  19.0952993  53.8049483   7.9625133  22.4825863
  53.4293083   7.1953063  22.0507153  53.0752603   8.3447833  22.9700793
  38.3945243   8.6412273  29.1034913  38.7618283   8.5539673  29.9830933
  37.8256063   7.8778823  29.0041773  53.1949103   7.1096653  32.1165383
  52.9635193   6.8809403  31.2163333  53.4553653   8.0296203  32.0710273
  37.9461243   5.5521363  33.0093333  37.0517293   5.5188123  33.3487043
  38.4858793   5.7508153  33.7744583  36.5707393   5.4658633  20.5056903
  35.6671473   5.7288833  20.3308563  37.0548013   5.7369803  19.7256863
  53.0800443   6.1882623  25.7833103  53.6037923   5.6945273  25.1523273
  53.6659863   6.3232983  26.5280673  53.2590163   6.2722493  29.3052653
  52.3092873   6.2386033  29.4197643  53.4403173   7.1822603  29.0702423
  39.1134603   4.5224173  18.4151283  39.8226303   4.1007393  17.9298563
  38.3974543   4.5899403  17.7834633  52.5700413   5.4455973  21.7225513
  53.0659533   5.2126843  22.5074393  52.3716483   4.6067813  21.3063153
  53.9987573   4.0816923  24.2563193  53.8886853   3.9272963  25.1945463
  54.7595163   3.5537863  24.0138603  54.8877843   1.9124843  17.4969333
  55.8127153   1.7806023  17.2887623  54.8653633   1.9917663  18.4505783
  54.9616333   2.6835503  20.1226043  54.1667833   2.6180623  20.6518953
  55.1659613   3.6186143  20.1111393  51.9034753  16.7227053  24.1164433
  52.4993823  16.4011623  23.4398853  52.1612903  16.2498873  24.9077703
  39.8097323  13.1544963  34.2655063  39.7666953  12.7837873  35.1469523
  39.9408333  14.0922533  34.4056883  43.5103353  14.7104553  29.8664783
  43.2694713  14.9779113  28.9795303  44.4505993  14.8810283  29.9215643
  54.7707513  16.7298933  30.6675423  54.2765793  17.1267803  29.9502553
  54.1620803  16.1048143  31.0612703  39.6485353  16.1007213  31.3852843
  39.0545673  15.9691913  32.1242883  39.6409193  15.2645353  30.9194943
  52.4546963  17.3722353  27.9462163  51.9949933  18.1238163  27.5720183
  51.8259423  16.6528823  27.8876963  39.2797583  13.4665593  30.3360883
  38.5531643  12.8470883  30.2686833  39.3406733  13.8606203  29.4658963
  42.8842683  15.6810593  27.1210293  43.4007703  15.0697953  26.5958553
  43.5340063  16.1839373  27.6121303  45.6238183  16.5719083  27.9479273
  45.9115993  16.3173383  27.0712283  46.1361403  16.0196443  28.5384843
  37.5627583  16.7839983  23.5457643  37.3949623  16.1510663  24.2439533
  36.6962093  16.9899383  23.1951833  44.7269413   2.7296033  24.0391813
  43.9143923   2.3552923  23.6987693  45.2311053   1.9741113  24.3413003
  39.1690283  15.4773213  20.9907783  38.6437903  15.8581243  20.2869743
  39.0934863  16.1023983  21.7117493  45.6910543  17.4935183  35.3147473
  46.6177853  17.2579453  35.3583433  45.6760973  18.3207183  34.8333503
  53.9255603  17.0360753  22.3121723  54.1007793  16.3498493  21.6682643
  53.2277173  17.5607803  21.9198393  41.7683253  17.4255593  19.8657033
  42.5002073  17.1414873  19.3180923  42.0276923  17.1868873  20.7556413
  40.9298043  13.5420323  19.8703363  40.3006923  14.0105423  20.4189193
  41.0445873  12.6969543  20.3049553  52.2588103  16.7205043  35.1388513
  53.0513423  16.2254273  34.9314473  52.5521253  17.3995183  35.7464123
  48.3847763   7.5925983   6.0204563  48.3041813   6.6780593   5.7496273
  47.9712183   8.0893053   5.3144273  46.5165803   9.3705003   7.9013833
  45.7407903   8.8905443   8.1912403  47.1678733   8.6910653   7.7269993
  40.5331633   9.6824813   8.7789593  39.7016513   9.4273523   9.1786103
  41.1412613   9.7535583   9.5147513  50.5373233  13.7765193   6.6812963
  50.0754763  13.0052433   7.0100133  51.3498783  13.8031263   7.1865413
  40.5132893  13.7164903   8.9747613  40.8160933  12.8262643   8.7957833
  41.2576483  14.2735123   8.7469863  36.9056593   7.2432353   8.4471683
  37.4772703   6.4754553   8.4475323  36.9058133   7.5421113   7.5378293
  46.7636543  16.0623203   6.3016953  46.1447983  16.5180703   5.7311393
  47.6188323  16.2174663   5.9006653  45.9574793  12.0462193   7.9083993
  45.8883073  11.1052133   7.7473123  46.7194653  12.1363603   8.4806563
  38.1481463   2.6516713  10.2340613  37.9684303   1.7542463  10.5143373
  37.7461543   3.1988583  10.9087563  46.9879963   4.8532573   8.1352923
  47.3644783   3.9804453   8.0226593  46.8899473   5.1891273   7.2443363
  41.1184973   3.2258203   3.5970363  41.2251723   4.1261933   3.9039123
  40.2077333   3.1776173   3.3065013  50.7704083   2.3483013   5.0681263
  51.5913703   1.8579583   5.1106743  50.8038163   2.9380673   5.8213103
  38.7668133   5.1477213   8.8422953  39.4478243   5.4115583   9.4610353
  38.4516183   4.3078083   9.1760963  42.9592703   6.1944573   7.9295543
  43.4670923   6.6925543   8.5700563  43.4905943   5.4179773   7.7534903
  55.0603633   4.3649763  11.6324893  54.3555803   4.7531473  11.1140003
  55.3261553   5.0600053  12.2345823  47.6299893  10.9462443   3.6948863
  47.0117163  11.4111893   3.1311583  48.1423143  11.6389923   4.1118373
  42.4931653  10.4738313  10.3732463  42.1601033  11.1007233  11.0153533
  42.6698333  11.0000193   9.5934133  51.0065563   4.2883393   7.8408803
  50.3021133   4.5768283   8.4211913  51.3677723   5.0983503   7.4808363
  40.9244133   2.5453093  10.2029413  41.2660943   3.3895143   9.9083283
  39.9859943   2.6936833  10.3194753  41.7050753  12.4419113  12.1881643
  42.3224753  13.1170193  11.9066093  40.8443873  12.8507093  12.0969143
  52.6228343  13.9058523  10.1036283  51.9391863  14.5757633  10.0952953
  53.1622633  14.1039173   9.3381143  54.0752483   3.7338183   8.2318013
  53.1277393   3.7677163   8.3633443  54.4002473   4.5477133   8.6167373
  50.1587083  15.7502653   8.8181463  50.1714243  15.3464943   7.9503723
  49.6062303  16.5249943   8.7142893  51.4532503  12.4718873   3.9071633
  51.3428833  11.5293203   4.0321053  51.4500753  12.8334513   4.7934393
  49.5572523  10.6532493  10.1464073  49.9741313  10.4392603   9.3117533
  50.2812343  10.9105283  10.7172693  46.9952783   8.0984193   3.2634123
  46.0682063   8.0321573   3.4922593  47.1477603   9.0364323   3.1489363
  53.5034623   9.0519713  10.2380313  52.6753253   9.1212803   9.7630443
  54.0985103   9.6374023   9.7696143  51.0250073   9.6604493   3.7669373
  50.4062493   9.3224043   3.1195673  51.0074523   9.0164253   4.4748563
  50.4676633   5.8389033  11.1835183  50.0547813   6.6642743  11.4375173
  49.7352583   5.2534073  10.9911543  42.6009423   8.6248933   6.0453853
  42.1966423   7.9126183   5.5499753  42.6872543   8.2802173   6.9341893
  43.0691123  12.3116493   8.2093063  42.7719413  11.7061963   7.5300843
  44.0190943  12.3493803   8.0982423  41.3138043   5.3992143   9.8252893
  41.8652633   5.5087483   9.0506143  41.8281553   5.7729743  10.5408123
  51.1576733  15.8848363  11.8716163  50.6807293  16.6920553  11.6788773
  50.4738523  15.2326693  12.0242373  42.1609553  12.0498183  14.8600863
  41.2638083  12.2738153  15.1074263  42.1862423  12.1733123  13.9112263
  40.9880773   8.9211503  13.4358233  40.8488543   9.7934303  13.8045633
  40.1062133   8.5784313  13.2906173  47.3110153  13.8387373   4.7423363
  47.7506063  14.5811703   4.3278753  47.2497043  14.0813943   5.6662323
  42.7861123  14.8633203  15.6443383  42.7576553  15.2676153  14.7771813
  42.6226093  13.9343563  15.4814983  39.3014053   7.5193913   3.5460503
  39.1811653   8.2456003   2.9341773  38.9914943   6.7496823   3.0688413
  54.7375943  15.6460303  16.9407553  55.2135663  16.1243193  17.6196633
  55.3583103  15.5777793  16.2153053  36.9399423  10.6909053   9.3529143
  37.0179843  10.8257823   8.4084863  37.5541103   9.9824943   9.5457263
  38.1847053  12.3909243   5.7635323  37.7775133  12.5323833   4.9088923
  39.0760063  12.1069403   5.5606533  54.1409193  12.8373153  14.1007563
  54.2672253  12.5985033  13.1824743  54.1830573  12.0057693  14.5729643
  48.0025933  16.5401153  12.6702373  48.5170603  16.4509163  13.4724803
  47.1595013  16.8860853  12.9630283  42.4568713  16.6055023   3.8757993
  42.2811193  15.6890563   3.6625793  41.6024453  16.9642313   4.1155793
  49.2456393  15.9606763   4.7332863  49.7013343  15.1796143   5.0471483
  49.5848913  16.6713583   5.2774043  53.9933203   4.8905613  15.0657303
  53.3777473   5.3985283  14.5372763  53.6729623   3.9903943  15.0083243
  36.9958943  11.7323223  11.8923603  37.1589983  11.2628583  11.0742973
  37.4611393  11.2246783  12.5572443  46.0547523   3.7297503  12.5319493
  45.5926893   3.9380523  13.3439433  45.6525633   2.9156853  12.2290163
  51.0552033   4.9506453  13.6616153  50.2045623   4.6512203  13.9825223
  50.8953823   5.1948463  12.7499973  48.1501743   6.4508203  15.7614943
  48.4755153   5.6171953  15.4217173  48.9382073   6.9736723  15.9093273
  41.5591933   5.9862553   4.6565423  41.3332853   5.7699723   5.5612043
  40.7784463   6.4191013   4.3111393  48.7889693   5.9925923   3.2556073
  48.1898583   6.7161723   3.0719693  49.3369303   5.9302703   2.4732523
  43.9991143   6.8848133  15.3225693  43.9034743   5.9442863  15.1726093
  44.8423123   7.1063203  14.9273763  47.3954563   4.6289463   5.2859353
  47.7884133   4.9461663   4.4728043  47.7571413   3.7501343   5.4003873
  39.1301683   3.2961803  13.4759473  38.7365073   4.1437013  13.6832253
  38.4420083   2.6588173  13.6668113  45.7046733   3.3796773  16.5456213
  45.0145053   3.1868973  17.1802303  46.4479033   3.6631413  17.0780513
  47.9809703   7.2195213   9.3810133  47.2490823   7.7282023   9.7300233
  47.5834043   6.4025193   9.0798913  44.4187093   3.8949413   7.7862623
  44.4223153   3.4539363   6.9367163  45.3138213   4.2166743   7.8934443
  40.2689473   3.7775903   6.7456833  39.9289523   4.2551133   7.5023883
  39.5066793   3.3241023   6.3857933  48.4435613   2.6728893   8.7933073
  48.4608353   3.1237543   9.6374923  48.1951193   1.7734533   9.0066513
  38.5697923  11.1074653  14.0519413  38.1852713  10.4668323  14.6502373
  38.8810113  11.8110773  14.6214143  44.7195063   7.9551193   9.5328033
  45.0865193   7.4809763  10.2789373  44.5300123   8.8292763   9.8736373
  37.5835553   2.6994883   5.6621503  37.2982473   2.3350553   6.5000123
  37.5214413   1.9675343   5.0484643  42.5094433   6.9959833  11.8512243
  42.2051503   7.8751813  12.0762603  43.4640893   7.0559623  11.8869683
  41.0376223  11.2020823   2.4479093  40.2638483  10.6618443   2.2877813
  41.7670853  10.6827433   2.1096853  51.7964203  10.1986183   8.2405483
  52.5163323  10.6941473   7.8501593  51.5946023   9.5204073   7.5959353
  47.1783003  10.2695243  14.1274483  47.1120313   9.3490913  13.8732073
  46.5488143  10.3670683  14.8419123  41.0813623  10.8701203   6.0857903
  41.5992293  10.0669463   6.0314793  40.6297643  10.8080343   6.9274733
  38.5658163   7.8362573  12.9983603  38.2073103   8.5016423  13.5856943
  38.2712723   7.0046123  13.3696223  41.7671283   8.2946813  15.8823153
  41.4671423   8.4403993  14.9850973  42.5382523   7.7352103  15.7896543
  47.1099733  13.0915813  13.8778283  47.1244273  12.1596773  13.6597193
  46.4024833  13.1775573  14.5168053  53.3210943   9.7323153  13.2246863
  52.5959133  10.3251933  13.0276253  53.8486403   9.7246693  12.4260233
  53.2724053  14.1297893   2.8759023  52.6300213  13.4753513   3.1502743
  52.8854713  14.5352983   2.0999693  48.8510533  11.4583323   6.7230713
  49.2034353  10.8611453   6.0632083  47.9672863  11.1327553   6.8938963
  44.9373813  12.2181013   4.1301123  45.6244943  12.7650223   4.5108713
  44.1506233  12.7621743   4.1650733  44.2401023   9.2227043   3.7426483
  44.6963803  10.0332293   3.9686673  43.8889233   8.9050183   4.5744973
  46.5433633  14.7333383  10.9718783  47.1875853  14.9392763  11.6492203
  46.9063073  13.9721783  10.5189633  47.8165713  12.7365733   9.6896233
  48.4587943  12.0358893   9.8028403  48.3415063  13.5164173   9.5093123
  49.5903333  13.5360633  12.8932293  49.9259573  14.1227323  13.5710213
  48.6703673  13.4053343  13.1230083  37.4279323  15.3136073  14.6622233
  37.5370443  14.3730813  14.5217623  36.7759883  15.5790823  14.0135963
  45.4191913  13.5851963  16.0620353  45.0988783  12.8661203  16.6066043
  44.7450273  14.2607033  16.1356413  48.6345513   3.8178123  11.4257153
  49.0026333   2.9973333  11.7536723  47.7743713   3.8780013  11.8412803
  43.9691573   5.0521013   3.6502593  43.2607723   5.5207353   4.0916203
  44.2536053   4.3943023   4.2847783  45.5947503   6.4717713  11.6495123
  46.0932753   6.9463533  12.3146973  45.7370453   5.5481233  11.8565153
  48.0007003   1.7771673   5.0898383  47.8774783   1.7957803   4.1407893
  48.9491563   1.8250613   5.2096783  45.0883793  17.0126973   4.3626363
  45.3425293  16.9748363   3.4405733  44.1396273  16.8860303   4.3554613
  52.8014363   2.6885673  12.4923513  52.2987963   3.4291073  12.8317323
  53.6171023   3.0769673  12.1760303  51.0936373   7.9318853   5.9384873
  50.1526513   7.9469083   6.1132563  51.4080443   7.1454813   6.3845173
  53.0961953  15.1027703   7.6139133  53.2209373  15.9258873   8.0862943
  53.9627513  14.8918433   7.2663283  40.5679483  17.1958913   7.2856263
  41.3041963  16.6474373   7.5564833  40.9520403  18.0614923   7.1462253
  37.4524963  13.2632483   3.1597773  36.5264743  13.5053623   3.1503183
  37.9181393  14.0906743   3.0382523  39.5737763  16.3804983  16.4741843
  40.3750493  16.7017033  16.8877243  39.0589583  16.0200563  17.1961753
  48.4102393  12.4884853  16.4217253  47.8040553  12.5116453  15.6813003
  48.1056503  11.7567893  16.9584503  49.8402763  16.2165143  15.0326663
  50.7924513  16.1323163  14.9826903  49.6930983  16.8806853  15.7060453
  37.2935573   8.8678443  15.4177893  37.7974593   8.2885723  15.9894123
  36.5542993   9.1518673  15.9554263  44.3473513  10.2749433  14.9513413
  43.5819183  10.8434433  14.8668083  44.5289473   9.9825643  14.0581643
  51.4896863  12.0054763  15.5088433  52.2306333  12.3430523  15.0055893
  50.7269543  12.1746823  14.9558203  39.3258653   7.0108033  16.3127963
  39.3663993   6.7121903  17.2213193  40.1804153   7.4115643  16.1535483
  41.2664463   5.5900133  14.2802453  40.7360923   5.0991083  13.6525793
  41.9352533   6.0184333  13.7460383  50.1642523  10.0569593  14.0443643
  50.5783543  10.2114673  14.8934063  49.2293523  10.1824813  14.2069423
  50.6364693   7.3965753  16.0482793  51.2185463   6.6418073  15.9603273
  50.8126463   7.9273193  15.2714273  41.7536763   2.5562503  14.3599743
  41.6593633   1.9383253  13.6350613  41.1734153   3.2828793  14.1329653
  44.9257753  10.0090073  12.0139573  45.3445863  10.8522803  11.8415813
  44.0066383  10.1462113  11.7846353  47.2621653   7.7406253  13.3977413
  47.3817863   7.1447393  14.1372253  48.1215653   7.7775943  12.9778713
  49.6009553   8.2943443  11.9739923  49.0744773   8.8186063  11.3705063
  49.9440893   8.9270833  12.6049653  42.7765173  16.3143083  13.1297303
  42.2386263  17.0389143  12.8106003  43.0299133  15.8373423  12.3394643
  44.0290423   4.2827603  14.6553233  44.6190113   3.9743453  15.3431053
  43.2110663   3.8107353  14.8113133  48.8483853   3.8993413  14.8886253
  48.1599373   3.2374953  14.8236243  49.5689873   3.4531683  15.3334713
  45.6327383  17.5494293  13.3883953  45.5586083  18.4529433  13.6956323
  44.7306223  17.2306193  13.3606023  37.0354673  14.8768883   6.6917573
  37.3657683  14.0089943   6.4596213  37.4645673  15.0827403   7.5222533
  41.6316593  13.2077893   4.3519543  41.3312133  13.0842863   5.2523453
  41.5254083  12.3486483   3.9435273  37.5244883  15.7439473   9.4299203
  37.0875873  15.9240273  10.2623353  38.0922563  16.5014093   9.2880923
  53.1607063  15.2456473  13.7176513  52.5609053  15.3049033  12.9740433
  53.2900963  14.3061453  13.8473363  37.3569313   8.2559703   5.7888083
  36.7018153   7.9871343   5.1447783  38.1947263   8.1464183   5.3390063
  54.8624943  10.5871873   6.4022353  55.2333773   9.8039193   5.9958323
  55.5026873  11.2760973   6.2239653  51.8458703  11.9708453  11.8152673
  51.0318543  12.4005613  12.0778463  52.2532903  12.5826863  11.2021723
  53.8049483   7.9625133   3.7082373  53.4293083   7.1953063   3.2763663
  53.0752603   8.3447833   4.1957303  38.3945243   8.6412273  10.3291423
  38.7618283   8.5539673  11.2087443  37.8256063   7.8778823  10.2298283
  53.1949103   7.1096653  13.3421893  52.9635193   6.8809403  12.4419843
  53.4553653   8.0296203  13.2966783  37.9461243   5.5521363  14.2349843
  37.0517293   5.5188123  14.5743553  38.4858793   5.7508153  15.0001093
  53.0800443   6.1882623   7.0089613  53.6037923   5.6945273   6.3779783
  53.6659863   6.3232983   7.7537183  53.2590163   6.2722493  10.5309163
  52.3092873   6.2386033  10.6454153  53.4403173   7.1822603  10.2958933
  52.5700413   5.4455973   2.9482023  53.0659533   5.2126843   3.7330903
  52.3716483   4.6067813   2.5319663  53.9987573   4.0816923   5.4819703
  53.8886853   3.9272963   6.4201973  54.7595163   3.5537863   5.2395113
  51.9034753  16.7227053   5.3420943  52.4993823  16.4011623   4.6655363
  52.1612903  16.2498873   6.1334213  39.8097323  13.1544963  15.4911573
  39.7666953  12.7837873  16.3726033  39.9408333  14.0922533  15.6313393
  43.5103353  14.7104553  11.0921293  43.2694713  14.9779113  10.2051813
  44.4505993  14.8810283  11.1472153  54.7707513  16.7298933  11.8931933
  54.2765793  17.1267803  11.1759063  54.1620803  16.1048143  12.2869213
  39.6485353  16.1007213  12.6109353  39.0545673  15.9691913  13.3499393
  39.6409193  15.2645353  12.1451453  52.4546963  17.3722353   9.1718673
  51.9949933  18.1238163   8.7976693  51.8259423  16.6528823   9.1133473
  39.2797583  13.4665593  11.5617393  38.5531643  12.8470883  11.4943343
  39.3406733  13.8606203  10.6915473  42.8842683  15.6810593   8.3466803
  43.4007703  15.0697953   7.8215063  43.5340063  16.1839373   8.8377813
  45.6238183  16.5719083   9.1735783  45.9115993  16.3173383   8.2968793
  46.1361403  16.0196443   9.7641353  37.5627583  16.7839983   4.7714153
  37.3949623  16.1510663   5.4696043  36.6962093  16.9899383   4.4208343
  44.7269413   2.7296033   5.2648323  43.9143923   2.3552923   4.9244203
  45.2311053   1.9741113   5.5669513  45.6910543  17.4935183  16.5403983
  46.6177853  17.2579453  16.5839943  45.6760973  18.3207183  16.0590013
  53.9255603  17.0360753   3.5378233  54.1007793  16.3498493   2.8939153
  53.2277173  17.5607803   3.1454903  52.2588103  16.7205043  16.3645023
  53.0513423  16.2254273  16.1570983  52.5521253  17.3995183  16.9720633
  29.6104273  63.9156453  62.3435033  29.5298323  63.0011063  62.0726743
  29.1968693  64.4123523  61.6374743  27.7422313  65.6935473  64.2244303
  26.9664413  65.2135913  64.5142873  28.3935243  65.0141123  64.0500463
  21.7588143  66.0055283  65.1020063  20.9273023  65.7503993  65.5016573
  22.3669123  66.0766053  65.8377983  31.7629743  70.0995663  63.0043433
  31.3011273  69.3282903  63.3330603  32.5755293  70.1261733  63.5095883
  21.7389403  70.0395373  65.2978083  22.0417443  69.1493113  65.1188303
  22.4832993  70.5965593  65.0700333  20.1680093  60.9657173  58.8862453
  19.2796793  61.3073143  58.7842333  20.4521283  60.7657493  57.9943283
  18.1313103  63.5662823  64.7702153  18.7029213  62.7985023  64.7705793
  18.1314643  63.8651583  63.8608763  27.1831303  68.3692663  64.2314463
  27.1139583  67.4282603  64.0703593  27.9451163  68.4594073  64.8037033
  19.3737973  58.9747183  66.5571083  19.1940813  58.0772933  66.8373843
  18.9718053  59.5219053  67.2318033  28.2136473  61.1763043  64.4583393
  28.5901293  60.3034923  64.3457063  28.1155983  61.5121743  63.5673833
  22.3441483  59.5488673  59.9200833  22.4508233  60.4492403  60.2269593
  21.4333843  59.5006643  59.6295483  31.9960593  58.6713483  61.3911733
  32.8170213  58.1810053  61.4337213  32.0294673  59.2611143  62.1443573
  19.9924643  61.4707683  65.1653423  20.6734753  61.7346053  65.7840823
  19.6772693  60.6308553  65.4991433  24.1849213  62.5175043  64.2526013
  24.6927433  63.0156013  64.8931033  24.7162453  61.7410243  64.0765373
  36.2860143  60.6880233  67.9555363  35.5812313  61.0761943  67.4370473
  36.5518063  61.3830523  68.5576293  22.4685313  57.1573603  68.5189433
  22.4703753  57.6745993  67.7135333  21.6389623  56.6803783  68.4959363
  28.8556403  67.2692913  60.0179333  28.2373673  67.7342363  59.4542053
  29.3679653  67.9620393  60.4348843  23.7188163  66.7968783  66.6962933
  23.3857543  67.4237703  67.3384003  23.8954843  67.3230663  65.9164603
  32.2322073  60.6113863  64.1639273  31.5277643  60.8998753  64.7442383
  32.5934233  61.4213973  63.8038833  22.1500643  58.8683563  66.5259883
  22.4917453  59.7125613  66.2313753  21.2116453  59.0167303  66.6425223
  22.9307263  68.7649583  68.5112113  23.5481263  69.4400663  68.2296563
  22.0700383  69.1737563  68.4199613  18.2239603  67.9549443  57.3918963
  17.8467583  68.4436543  56.6603863  18.4812673  68.6274723  58.0225493
  33.8484853  70.2288993  66.4266753  33.1648373  70.8988103  66.4183423
  34.3879143  70.4269643  65.6611613  35.3008993  60.0568653  64.5548483
  34.3533903  60.0907633  64.6863913  35.6258983  60.8707603  64.9397843
  25.8328533  56.3565833  62.8504473  26.1403513  55.8012723  62.1339973
  24.9029233  56.4910293  62.6677463  32.6789013  68.7949343  60.2302103
  32.5685343  67.8523673  60.3551523  32.6757263  69.1564983  61.1164863
  30.7829033  66.9762963  66.4694543  31.1997823  66.7623073  65.6348003
  31.5068853  67.2335753  67.0403163  28.2209293  64.4214663  59.5864593
  27.2938573  64.3552043  59.8153063  28.3734113  65.3594793  59.4719833
  28.2078373  60.6931663  56.5831753  27.2682043  60.8545623  56.6684213
  28.5261633  61.4117343  56.0367743  34.7291133  65.3750183  66.5610783
  33.9009763  65.4443273  66.0860913  35.3241613  65.9604493  66.0926613
  32.2506583  65.9834963  60.0899843  31.6319003  65.6454513  59.4426143
  32.2331033  65.3394723  60.7979033  31.6933143  62.1619503  67.5065653
  31.2804323  62.9873213  67.7605643  30.9609093  61.5764543  67.3142013
  23.8265933  64.9479403  62.3684323  23.4222933  64.2356653  61.8730223
  23.9129053  64.6032643  63.2572363  24.2947633  68.6346963  64.5323533
  23.9975923  68.0292433  63.8531313  25.2447453  68.6724273  64.4212893
  22.5394553  61.7222613  66.1483363  23.0909143  61.8317953  65.3736613
  23.0538063  62.0960213  66.8638593  30.4271283  65.2221773  57.0972593
  30.8664563  64.3844203  56.9510413  31.1399703  65.8551173  57.1836733
  28.5366663  70.1617843  61.0653833  28.9762573  70.9042173  60.6509223
  28.4753553  70.4044413  61.9892793  34.0088423  56.4764583  55.4113633
  33.6961083  56.5691413  56.3112703  34.7700893  57.0545613  55.3611063
  20.5270563  63.8424383  59.8690973  20.4068163  64.5686473  59.2572243
  20.2171453  63.0727293  59.3918883  18.1655933  67.0139523  65.6759613
  18.2436353  67.1488293  64.7315333  18.7797613  66.3055413  65.8687733
  19.4103563  68.7139713  62.0865793  19.0031643  68.8554303  61.2319393
  20.3016573  68.4299873  61.8837003  30.9062973  70.6574523  56.9814843
  30.2128133  70.6551813  56.3217123  31.6485833  70.2333843  56.5509013
  18.2215453  68.0553693  68.2154073  18.3846493  67.5859053  67.3973443
  18.6867903  67.5477253  68.8802913  22.9934223  57.1859453  63.2514643
  22.5502373  57.9668993  62.9199163  23.5519213  57.5089343  63.9585583
  27.2804033  60.0527973  68.8549963  26.8183403  60.2610993  69.6669903
  26.8782143  59.2387323  68.5520633  26.1093043  56.8070153  58.1320473
  25.4847223  56.8030023  58.8573783  26.0223163  55.9401113  57.7356443
  25.0310123  57.7306783  65.1104243  25.3282453  58.6369613  65.0296263
  25.5795683  57.2425563  64.4963813  22.7848443  62.3093023  60.9795893
  22.5589363  62.0930193  61.8842513  22.0040973  62.7421483  60.6341863
  30.0146203  62.3156393  59.5786543  29.4155093  63.0392193  59.3950163
  30.5625813  62.2533173  58.7962993  28.6211073  60.9519933  61.6089823
  29.0140643  61.2692133  60.7958513  28.9827923  60.0731813  61.7234343
  17.6575243  57.5420733  63.8320023  17.3688293  58.1123593  64.5445003
  18.4021003  57.0625183  64.1951253  17.8445473  61.4840853  55.0422743
  17.7620143  62.4271613  55.1837733  17.4928533  61.3415763  54.1635093
  29.2066213  63.5425683  65.7040603  28.4747333  64.0512493  66.0530703
  28.8090553  62.7255663  65.4029383  25.6443603  60.2179883  64.1093093
  25.6479663  59.7769833  63.2597633  26.5394723  60.5397213  64.2164913
  21.4945983  60.1006373  63.0687303  21.1546033  60.5781603  63.8254353
  20.7323303  59.6471493  62.7088403  25.7063753  61.2191963  57.0999853
  25.8276573  61.1778443  58.0485673  25.3212263  62.0816113  56.9446583
  29.6692123  58.9959363  65.1163543  29.6864863  59.4468013  65.9605393
  29.4207703  58.0965003  65.3296983  24.7185253  63.5293103  56.4983153
  24.1502153  63.0811353  55.8719063  25.4274253  63.8885883  55.9648303
  25.9451573  64.2781663  65.8558503  26.3121703  63.8040233  66.6019843
  25.7556633  65.1523233  66.1966843  18.8092063  59.0225353  61.9851973
  18.5238983  58.6581023  62.8230593  18.7470923  58.2905813  61.3715113
  23.7350943  63.3190303  68.1742713  23.4308013  64.1982283  68.3993073
  24.6897403  63.3790093  68.2100153  22.2632733  67.5251293  58.7709563
  21.4894993  66.9848913  58.6108283  22.9927363  67.0057903  58.4327323
  33.0220713  66.5216653  64.5635953  33.7419833  67.0171943  64.1732063
  32.8202533  65.8434543  63.9189823  28.4830653  57.9154613  58.7065343
  27.6695263  57.4167783  58.6310653  28.2892603  58.7552863  58.2901693
  31.1979043  62.2874263  57.0027503  32.0858663  62.5991493  56.8278843
  31.1684133  61.4146513  56.6108083  22.3070133  67.1931673  62.4088373
  22.8248803  66.3899933  62.3545263  21.8554153  67.1310813  63.2505203
  27.1939633  68.4597953  57.6815673  27.5355333  69.2040183  57.1858993
  26.3652343  68.7729073  58.0440503  33.4693313  63.5986103  56.4707363
  33.3857033  64.0300323  55.6203803  34.1887503  64.0584453  56.9034183
  34.5467453  66.0553623  69.5477333  33.8215643  66.6482403  69.3506723
  35.0742913  66.0477163  68.7490703  34.4980563  70.4528363  59.1989493
  33.8556723  69.7983983  59.4733213  34.1111223  70.8583453  58.4230163
  30.0767043  67.7813793  63.0461183  30.4290863  67.1841923  62.3862553
  29.1929373  67.4558023  63.2169433  26.1630323  68.5411483  60.4531593
  26.8501453  69.0880693  60.8339183  25.3762743  69.0852213  60.4881203
  18.3022723  64.1584303  55.9448673  19.1717573  64.4409103  56.2284593
  17.8113043  64.9720173  55.8297483  25.4657533  65.5457513  60.0656953
  25.9220313  66.3562763  60.2917143  25.1145743  65.2280653  60.8975443
  27.7690143  71.0563853  67.2949253  28.4132363  71.2623233  67.9722673
  28.1319583  70.2952253  66.8420103  21.3669313  55.8895163  60.5379473
  21.2383943  55.8813063  61.4864393  20.5431333  56.2278253  60.1870483
  29.0422223  69.0596203  66.0126703  29.6844453  68.3589363  66.1258873
  29.5671573  69.8394643  65.8323593  32.8877943  69.3444823  55.7365843
  32.6615523  68.6275263  56.3290483  32.4974143  69.0957263  54.8987593
  32.4694193  67.2616763  57.3980003  32.1815893  67.7229453  58.1857883
  33.2646363  66.8014533  57.6664223  20.2869233  65.9757773  58.0730733
  19.6797183  66.7156673  58.0826033  20.7618583  66.0657133  57.2468933
  29.8602023  60.1408593  67.7487623  30.2282843  59.3203803  68.0767193
  29.0000223  60.2010483  68.1643273  33.2264053  59.0965533  58.5575183
  32.5977213  59.2011203  57.8433413  32.7315973  59.3162313  59.3469063
  27.6722193  70.8171123  55.9909163  27.7734173  70.6135113  55.0611143
  26.7723933  70.5629403  56.1956943  25.1948083  61.3751483  59.9733063
  24.4864233  61.8437823  60.4146673  25.4792563  60.7173493  60.6078253
  26.8204013  62.7948183  67.9725593  27.3189263  63.2694003  68.6377443
  26.9626963  61.8711703  68.1795623  29.2263513  58.1002143  61.4128853
  29.1031293  58.1188273  60.4638363  30.1748073  58.1481083  61.5327253
  23.3983103  59.6836563  57.3483773  24.2473633  60.1206713  57.2823963
  23.0314373  59.9956823  58.1755833  34.0270873  59.0116143  68.8153983
  33.5244473  59.7521543  69.1547793  34.8427533  59.4000143  68.4990773
  32.3192883  64.2549323  62.2615343  31.3783023  64.2699553  62.4363033
  32.6336953  63.4685283  62.7075643  22.2974523  65.9368923  55.8219303
  23.0637793  65.8250283  56.3844733  22.3749213  65.2406893  55.1696073
  20.9921283  63.3693993  56.5052193  21.0724873  62.4221503  56.6169593
  21.8841033  63.7000873  56.6112853  18.6781473  69.5862953  59.4828243
  17.7521253  69.8284093  59.4733653  19.1437903  70.4137213  59.3612993
  25.4215703  67.9123103  55.2954653  25.3166343  67.2975453  56.0216033
  25.2539923  67.3888993  54.5117663  28.6618433  66.9743133  55.8996643
  28.1128533  67.4212433  56.5439383  29.2837693  66.4692383  56.4234313
  24.3293553  65.9334053  57.7961943  24.7509973  65.7673923  58.6393333
  24.4544393  65.1234283  57.3017083  26.8421193  64.9571663  55.0439043
  27.3626853  64.2420683  54.6780193  27.4889593  65.5957533  55.3439553
  25.7454713  57.4366213  67.7157603  25.2972013  57.4590473  66.8703153
  25.1119913  57.0385233  68.3127903  26.1514263  66.3320543  68.3370043
  26.5702373  67.1753273  68.1646283  25.2322893  66.4692583  68.1076823
  30.8266063  64.6173913  68.2970393  30.3001283  65.1416533  67.6935533
  31.1697403  65.2501303  68.9280123  23.2252453  62.0067283  54.7420103
  23.0241513  61.1434643  55.1033443  23.0544503  61.9200643  53.8041703
  30.7040763  56.8175513  57.2706983  30.9843053  55.9743413  57.6266403
  29.9306493  57.0498623  57.7845733  22.0235253  59.1067903  54.7297983
  22.3261153  59.1135333  53.8217133  22.7629843  58.7565763  55.2265643
  25.2420183  58.0502523  55.7154183  24.8942183  57.3726513  55.1356633
  25.4432953  57.5892033  56.5297573  21.0465383  68.4110323  55.5627783
  21.4840253  68.9539993  56.2185363  21.5313113  67.5857273  55.5724123
  18.2611183  71.1999353  63.0148043  18.5914193  70.3320413  62.7826683
  18.6902183  71.4057873  63.8453003  22.8573103  69.5308363  60.6750013
  22.5568643  69.4073333  61.5753923  22.7510593  68.6716953  60.2665743
  35.6265023  69.3104763  55.3776693  34.7957983  69.3781413  55.8483923
  35.8036853  70.2008883  55.0743553  35.0821483  66.0552243  57.8810893
  35.8440393  66.6248893  57.9870583  35.0975853  65.4879443  58.6519203
  18.5825823  64.5790173  62.1118553  17.9274663  64.3101813  61.4678253
  19.4203773  64.4694653  61.6620533  36.0881453  66.9102343  62.7252823
  36.4590283  66.1269663  62.3188793  36.7283383  67.5991443  62.5470123
  33.0715213  68.2938923  68.1383143  32.2575053  68.7236083  68.4008933
  33.4789413  68.9057333  67.5252193  35.1340653  66.3486613  55.0383413
  35.4089493  67.2565493  54.9102633  34.9451393  66.2849143  55.9745403
  31.5316263  59.3731463  56.3337043  31.9501143  59.1862443  55.4933703
  31.2252323  58.5210513  56.6439973  35.0305993  64.2855603  60.0312843
  34.6549593  63.5183533  59.5994133  34.3009113  64.6678303  60.5187773
  19.6201753  64.9642743  66.6521893  19.9874793  64.8770143  67.5317913
  19.0512573  64.2009293  66.5528753  34.4205613  63.4327123  69.6652363
  34.1891703  63.2039873  68.7650313  34.6810163  64.3526673  69.6197253
  17.7963903  61.7889103  58.0543883  16.8927983  62.0519303  57.8795543
  18.2804523  62.0600273  57.2743843  34.3056953  62.5113093  63.3320083
  34.8294433  62.0175743  62.7010253  34.8916373  62.6463453  64.0767653
  34.4846673  62.5952963  66.8539633  33.5349383  62.5616503  66.9684623
  34.6659683  63.5053073  66.6189403  20.3391113  60.8454643  55.9638263
  21.0482813  60.4237863  55.4785543  19.6231053  60.9129873  55.3321613
  19.9865273  56.8993973  55.0040913  20.7093403  57.4402913  55.3222133
  20.2589793  56.6257393  54.1282453  33.7956923  61.7686443  59.2712493
  34.2916043  61.5357313  60.0561373  33.5972993  60.9298283  58.8550133
  19.6757463  56.1500163  64.9063533  20.3233653  55.5997543  64.4658693
  20.0959303  56.4043313  65.7279343  35.2244083  60.4047393  61.8050173
  35.1143363  60.2503433  62.7432443  35.9851673  59.8768333  61.5625583
  33.5709803  56.3441523  68.2633173  34.2082023  56.9575663  68.6292363
  33.7184693  56.3802183  67.3182403  36.1134353  58.2355313  55.0456313
  37.0383663  58.1036493  54.8374603  36.0910143  58.3148133  55.9992763
  36.1872843  59.0065973  57.6713023  35.3924343  58.9411093  58.2005933
  36.3916123  59.9416613  57.6598373  19.4289463  56.3055833  67.6488853
  19.0804283  56.7619653  68.4147033  19.0977163  55.4112963  67.7311283
  24.7359863  71.0335023  67.4151763  24.4951223  71.3009583  66.5282283
  25.6762503  71.2040753  67.4702623  30.3196883  55.7169913  67.1369853
  29.4456723  56.0505023  66.9342783  30.2107633  55.2443093  67.9621723
  31.2268863  57.9240783  68.5211573  30.8982223  57.1092543  68.1413303
  32.1751163  57.8810593  68.3977263  20.5054093  69.7896063  67.8847863
  19.7788153  69.1701353  67.8173813  20.5663243  70.1836673  67.0145943
  28.0671703  56.6339753  66.0762763  27.2843493  57.1085253  66.3559523
  27.7734633  55.7294583  65.9675943  32.6192773  57.3362853  64.1211853
  33.0600863  57.2807953  63.2733453  32.3500363  58.2520863  64.1922033
  34.4831343  56.9678093  62.1320673  34.4219743  56.0239313  61.9851693
  35.2623373  57.0758183  62.6774133  19.4112113  56.9387233  58.5976483
  20.1691473  57.0516113  58.0240513  18.9489283  57.7756433  58.5519913
  25.9525923  59.0526503  61.5878793  25.1400433  58.6783393  61.2474673
  26.4567563  58.2971583  61.8899983  30.4550903  55.7168953  62.8261863
  31.0580273  56.2889163  63.3010383  29.7143893  56.2808393  62.6035763
  33.5985503  56.1190513  58.1002143  33.7936133  57.0173963  58.3669573
  32.8115373  55.8877593  58.5935093  21.7837263  57.4651283  57.1378453
  22.3130023  56.6781083  57.0086403  22.4165583  58.1442473  57.3713983
  23.9775103  57.2026423  60.1923843  23.3477843  56.5013733  60.3593973
  23.4380243  57.9630553  59.9757003  22.1554553  69.8650793  57.4190343
  21.5263433  70.3335893  57.9676173  22.2702383  69.0200013  57.8536533
  29.6104273  63.9156453  43.5691543  29.5298323  63.0011063  43.2983253
  29.1968693  64.4123523  42.8631253  27.7422313  65.6935473  45.4500813
  26.9664413  65.2135913  45.7399383  28.3935243  65.0141123  45.2756973
  21.7588143  66.0055283  46.3276573  20.9273023  65.7503993  46.7273083
  22.3669123  66.0766053  47.0634493  31.7629743  70.0995663  44.2299943
  31.3011273  69.3282903  44.5587113  32.5755293  70.1261733  44.7352393
  21.7389403  70.0395373  46.5234593  22.0417443  69.1493113  46.3444813
  22.4832993  70.5965593  46.2956843  20.1680093  60.9657173  40.1118963
  19.2796793  61.3073143  40.0098843  20.4521283  60.7657493  39.2199793
  18.1313103  63.5662823  45.9958663  18.7029213  62.7985023  45.9962303
  18.1314643  63.8651583  45.0865273  27.1831303  68.3692663  45.4570973
  27.1139583  67.4282603  45.2960103  27.9451163  68.4594073  46.0293543
  19.3737973  58.9747183  47.7827593  19.1940813  58.0772933  48.0630353
  18.9718053  59.5219053  48.4574543  28.2136473  61.1763043  45.6839903
  28.5901293  60.3034923  45.5713573  28.1155983  61.5121743  44.7930343
  22.3441483  59.5488673  41.1457343  22.4508233  60.4492403  41.4526103
  21.4333843  59.5006643  40.8551993  31.9960593  58.6713483  42.6168243
  32.8170213  58.1810053  42.6593723  32.0294673  59.2611143  43.3700083
  19.9924643  61.4707683  46.3909933  20.6734753  61.7346053  47.0097333
  19.6772693  60.6308553  46.7247943  24.1849213  62.5175043  45.4782523
  24.6927433  63.0156013  46.1187543  24.7162453  61.7410243  45.3021883
  36.2860143  60.6880233  49.1811873  35.5812313  61.0761943  48.6626983
  36.5518063  61.3830523  49.7832803  22.4685313  57.1573603  49.7445943
  22.4703753  57.6745993  48.9391843  21.6389623  56.6803783  49.7215873
  28.8556403  67.2692913  41.2435843  28.2373673  67.7342363  40.6798563
  29.3679653  67.9620393  41.6605353  23.7188163  66.7968783  47.9219443
  23.3857543  67.4237703  48.5640513  23.8954843  67.3230663  47.1421113
  32.2322073  60.6113863  45.3895783  31.5277643  60.8998753  45.9698893
  32.5934233  61.4213973  45.0295343  22.1500643  58.8683563  47.7516393
  22.4917453  59.7125613  47.4570263  21.2116453  59.0167303  47.8681733
  22.9307263  68.7649583  49.7368623  23.5481263  69.4400663  49.4553073
  22.0700383  69.1737563  49.6456123  18.2239603  67.9549443  38.6175473
  17.8467583  68.4436543  37.8860373  18.4812673  68.6274723  39.2482003
  33.8484853  70.2288993  47.6523263  33.1648373  70.8988103  47.6439933
  34.3879143  70.4269643  46.8868123  35.3008993  60.0568653  45.7804993
  34.3533903  60.0907633  45.9120423  35.6258983  60.8707603  46.1654353
  25.8328533  56.3565833  44.0760983  26.1403513  55.8012723  43.3596483
  24.9029233  56.4910293  43.8933973  32.6789013  68.7949343  41.4558613
  32.5685343  67.8523673  41.5808033  32.6757263  69.1564983  42.3421373
  30.7829033  66.9762963  47.6951053  31.1997823  66.7623073  46.8604513
  31.5068853  67.2335753  48.2659673  28.2209293  64.4214663  40.8121103
  27.2938573  64.3552043  41.0409573  28.3734113  65.3594793  40.6976343
  28.2078373  60.6931663  37.8088263  27.2682043  60.8545623  37.8940723
  28.5261633  61.4117343  37.2624253  34.7291133  65.3750183  47.7867293
  33.9009763  65.4443273  47.3117423  35.3241613  65.9604493  47.3183123
  32.2506583  65.9834963  41.3156353  31.6319003  65.6454513  40.6682653
  32.2331033  65.3394723  42.0235543  31.6933143  62.1619503  48.7322163
  31.2804323  62.9873213  48.9862153  30.9609093  61.5764543  48.5398523
  23.8265933  64.9479403  43.5940833  23.4222933  64.2356653  43.0986733
  23.9129053  64.6032643  44.4828873  24.2947633  68.6346963  45.7580043
  23.9975923  68.0292433  45.0787823  25.2447453  68.6724273  45.6469403
  22.5394553  61.7222613  47.3739873  23.0909143  61.8317953  46.5993123
  23.0538063  62.0960213  48.0895103  23.3866063  68.3728653  52.4087843
  22.4894593  68.5968623  52.6561243  23.4118933  68.4963593  51.4599243
  30.4271283  65.2221773  38.3229103  30.8664563  64.3844203  38.1766923
  31.1399703  65.8551173  38.4093243  22.2137283  65.2441973  50.9845213
  22.0745053  66.1164773  51.3532613  21.3318643  64.9014783  50.8393153
  28.5366663  70.1617843  42.2910343  28.9762573  70.9042173  41.8765733
  28.4753553  70.4044413  43.2149303  34.0088423  56.4764583  36.6370143
  33.6961083  56.5691413  37.5369213  34.7700893  57.0545613  36.5867573
  20.5270563  63.8424383  41.0947483  20.4068163  64.5686473  40.4828753
  20.2171453  63.0727293  40.6175393  18.1655933  67.0139523  46.9016123
  18.2436353  67.1488293  45.9571843  18.7797613  66.3055413  47.0944243
  19.4103563  68.7139713  43.3122303  19.0031643  68.8554303  42.4575903
  20.3016573  68.4299873  43.1093513  35.3665703  69.1603623  51.6494543
  35.4928763  68.9215503  50.7311723  35.4087083  68.3288163  52.1216623
  30.9062973  70.6574523  38.2071353  30.2128133  70.6551813  37.5473633
  31.6485833  70.2333843  37.7765523  35.2189713  61.2136083  52.6144283
  34.6033983  61.7215753  52.0859743  34.8986133  60.3134413  52.5570223
  18.2215453  68.0553693  49.4410583  18.3846493  67.5859053  48.6229953
  18.6867903  67.5477253  50.1059423  22.9934223  57.1859453  44.4771153
  22.5502373  57.9668993  44.1455673  23.5519213  57.5089343  45.1842093
  27.2804033  60.0527973  50.0806473  26.8183403  60.2610993  50.8926413
  26.8782143  59.2387323  49.7777143  32.2808543  61.2736923  51.2103133
  31.4302133  60.9742673  51.5312203  32.1210333  61.5178933  50.2986953
  29.3758253  62.7738673  53.3101923  29.7011663  61.9402423  52.9704153
  30.1638583  63.2967193  53.4580253  26.1093043  56.8070153  39.3576983
  25.4847223  56.8030023  40.0830293  26.0223163  55.9401113  38.9612953
  25.0310123  57.7306783  46.3360753  25.3282453  58.6369613  46.2552773
  25.5795683  57.2425563  45.7220323  22.7848443  62.3093023  42.2052403
  22.5589363  62.0930193  43.1099023  22.0040973  62.7421483  41.8598373
  30.0146203  62.3156393  40.8043053  29.4155093  63.0392193  40.6206673
  30.5625813  62.2533173  40.0219503  25.2247653  63.2078603  52.8712673
  25.1291253  62.2673333  52.7213073  26.0679633  63.4293673  52.4760743
  28.6211073  60.9519933  42.8346333  29.0140643  61.2692133  42.0215023
  28.9827923  60.0731813  42.9490853  20.3558193  59.6192273  51.0246453
  19.9621583  60.4667483  51.2319233  19.6676593  58.9818643  51.2155093
  26.9303243  59.7027243  54.0943193  26.2401563  59.5099443  54.7289283
  27.6735543  59.9861883  54.6267493  17.6575243  57.5420733  45.0576533
  17.3688293  58.1123593  45.7701513  18.4021003  57.0625183  45.4207763
  17.8445473  61.4840853  36.2679253  17.7620143  62.4271613  36.4094243
  17.4928533  61.3415763  35.3891603  29.2066213  63.5425683  46.9297113
  28.4747333  64.0512493  47.2787213  28.8090553  62.7255663  46.6285893
  25.6443603  60.2179883  45.3349603  25.6479663  59.7769833  44.4854143
  26.5394723  60.5397213  45.4421423  21.4945983  60.1006373  44.2943813
  21.1546033  60.5781603  45.0510863  20.7323303  59.6471493  43.9344913
  25.7063753  61.2191963  38.3256363  25.8276573  61.1778443  39.2742183
  25.3212263  62.0816113  38.1703093  29.6692123  58.9959363  46.3420053
  29.6864863  59.4468013  47.1861903  29.4207703  58.0965003  46.5553493
  24.7185253  63.5293103  37.7239663  24.1502153  63.0811353  37.0975573
  25.4274253  63.8885883  37.1904813  33.0962873  56.4091543  52.1806433
  33.4208643  55.6781203  52.7064413  33.1319383  56.0905183  51.2787423
  19.7954433  67.4305123  51.6006393  19.4109223  66.7898793  52.1989353
  20.1066623  68.1341243  52.1701123  25.9451573  64.2781663  47.0815013
  26.3121703  63.8040233  47.8276353  25.7556633  65.1523233  47.4223353
  18.8092063  59.0225353  43.2108483  18.5238983  58.6581023  44.0487103
  18.7470923  58.2905813  42.5971623  23.7350943  63.3190303  49.3999223
  23.4308013  64.1982283  49.6249583  24.6897403  63.3790093  49.4356663
  22.2632733  67.5251293  39.9966073  21.4894993  66.9848913  39.8364793
  22.9927363  67.0057903  39.6583833  33.0220713  66.5216653  45.7892463
  33.7419833  67.0171943  45.3988573  32.8202533  65.8434543  45.1446333
  28.4830653  57.9154613  39.9321853  27.6695263  57.4167783  39.8567163
  28.2892603  58.7552863  39.5158203  28.4039513  66.5925713  51.6761463
  28.3376823  65.6721383  51.4219053  27.7744653  66.6901153  52.3906103
  31.1979043  62.2874263  38.2284013  32.0858663  62.5991493  38.0535353
  31.1684133  61.4146513  37.8364593  22.3070133  67.1931673  43.6344883
  22.8248803  66.3899933  43.5801773  21.8554153  67.1310813  44.4761713
  27.1939633  68.4597953  38.9072183  27.5355333  69.2040183  38.4115503
  26.3652343  68.7729073  39.2697013  19.7914673  64.1593043  50.5470583
  19.4329613  64.8246893  51.1343923  19.4969233  63.3276593  50.9183203
  22.9927793  64.6177283  53.4310133  22.6927933  64.7634463  52.5337953
  23.7639033  64.0582573  53.3383523  28.3356243  69.4146283  51.4265263
  28.3500783  68.4827243  51.2084173  27.6281343  69.5006043  52.0655033
  33.4693313  63.5986103  37.6963873  33.3857033  64.0300323  36.8460313
  34.1887503  64.0584453  38.1290693  34.5467453  66.0553623  50.7733843
  33.8215643  66.6482403  50.5763233  35.0742913  66.0477163  49.9747213
  34.4980563  70.4528363  40.4246003  33.8556723  69.7983983  40.6989723
  34.1111223  70.8583453  39.6486673  30.0767043  67.7813793  44.2717693
  30.4290863  67.1841923  43.6119063  29.1929373  67.4558023  44.4425943
  26.1630323  68.5411483  41.6788103  26.8501453  69.0880693  42.0595693
  25.3762743  69.0852213  41.7137713  18.3022723  64.1584303  37.1705183
  19.1717573  64.4409103  37.4541103  17.8113043  64.9720173  37.0553993
  25.4657533  65.5457513  41.2913463  25.9220313  66.3562763  41.5173653
  25.1145743  65.2280653  42.1231953  27.7690143  71.0563853  48.5205763
  28.4132363  71.2623233  49.1979183  28.1319583  70.2952253  48.0676613
  21.3669313  55.8895163  41.7635983  21.2383943  55.8813063  42.7120903
  20.5431333  56.2278253  41.4126993  29.0422223  69.0596203  47.2383213
  29.6844453  68.3589363  47.3515383  29.5671573  69.8394643  47.0580103
  32.8877943  69.3444823  36.9622353  32.6615523  68.6275263  37.5546993
  32.4974143  69.0957263  36.1244103  30.8159843  69.8591103  50.4419273
  31.1516083  70.4457793  51.1197193  29.8960183  69.7283813  50.6717063
  18.3663243  57.6486283  51.2242683  17.6521763  57.8483203  51.8295293
  18.7858283  56.8725853  51.5957483  32.4694193  67.2616763  38.6236513
  32.1815893  67.7229453  39.4114393  33.2646363  66.8014533  38.8920733
  26.6448423  69.9082433  53.6107333  26.3245293  69.1891673  54.1553023
  25.9706783  70.5837503  53.6843393  20.2869233  65.9757773  39.2987243
  19.6797183  66.7156673  39.3082543  20.7618583  66.0657133  38.4725443
  29.8602023  60.1408593  48.9744133  30.2282843  59.3203803  49.3023703
  29.0000223  60.2010483  49.3899783  33.2264053  59.0965533  39.7831693
  32.5977213  59.2011203  39.0689923  32.7315973  59.3162313  40.5725573
  27.6722193  70.8171123  37.2165673  27.7734173  70.6135113  36.2867653
  26.7723933  70.5629403  37.4213453  25.1948083  61.3751483  41.1989573
  24.4864233  61.8437823  41.6403183  25.4792563  60.7173493  41.8334763
  26.8204013  62.7948183  49.1982103  27.3189263  63.2694003  49.8633953
  26.9626963  61.8711703  49.4052133  29.2263513  58.1002143  42.6385363
  29.1031293  58.1188273  41.6894873  30.1748073  58.1481083  42.7583763
  23.3983103  59.6836563  38.5740283  24.2473633  60.1206713  38.5080473
  23.0314373  59.9956823  39.4012343  34.0270873  59.0116143  50.0410493
  33.5244473  59.7521543  50.3804303  34.8427533  59.4000143  49.7247283
  32.3192883  64.2549323  43.4871853  31.3783023  64.2699553  43.6619543
  32.6336953  63.4685283  43.9332153  22.2974523  65.9368923  37.0475813
  23.0637793  65.8250283  37.6101243  22.3749213  65.2406893  36.3952583
  20.9921283  63.3693993  37.7308703  21.0724873  62.4221503  37.8426103
  21.8841033  63.7000873  37.8369363  18.6781473  69.5862953  40.7084753
  17.7521253  69.8284093  40.6990163  19.1437903  70.4137213  40.5869503
  29.6358903  68.8115323  53.9704233  29.0297063  68.8346923  53.2299983
  29.3313013  68.0798363  54.5071483  18.5192083  65.1908913  52.9664873
  19.0231103  64.6116193  53.5381103  17.7799503  65.4749143  53.5041243
  25.4215703  67.9123103  36.5211163  25.3166343  67.2975453  37.2472543
  25.2539923  67.3888993  35.7374173  25.5730023  66.5979903  52.5000393
  24.8075693  67.1664903  52.4155063  25.7545983  66.3056113  51.6068623
  28.6618433  66.9743133  37.1253153  28.1128533  67.4212433  37.7695893
  29.2837693  66.4692383  37.6490823  32.7153373  68.3285233  53.0575413
  33.4562843  68.6660993  52.5542873  31.9526053  68.4977293  52.5045183
  20.5515163  63.3338503  53.8614943  20.5920503  63.0352373  54.7700173
  21.4060663  63.7346113  53.7022463  24.3293553  65.9334053  39.0218453
  24.7509973  65.7673923  39.8649843  24.4544393  65.1234283  38.5273593
  22.4920973  61.9130603  51.8289433  21.9617433  61.4221553  51.2012773
  23.1609043  62.3414803  51.2947363  26.8421193  64.9571663  36.2695553
  27.3626853  64.2420683  35.9036703  27.4889593  65.5957533  36.5696063
  31.3899033  66.3800063  51.5930623  31.8040053  66.5345143  52.4421043
  30.4550033  66.5055283  51.7556403  31.8621203  63.7196223  53.5969773
  32.4441973  62.9648543  53.5090253  32.0382973  64.2503663  52.8201253
  22.9793273  58.8792973  51.9086723  22.8850143  58.2613723  51.1837593
  22.3990663  59.6059263  51.6816633  25.7454713  57.4366213  48.9414113
  25.2972013  57.4590473  48.0959663  25.1119913  57.0385233  49.5384413
  26.1514263  66.3320543  49.5626553  26.5702373  67.1753273  49.3902793
  25.2322893  66.4692583  49.3333333  28.4878163  64.0636723  50.9464393
  28.6074373  63.4677863  51.6859233  29.3472163  64.1006413  50.5265693
  30.8266063  64.6173913  49.5226903  30.3001283  65.1416533  48.9192043
  31.1697403  65.2501303  50.1536633  23.2252453  62.0067283  35.9676613
  23.0241513  61.1434643  36.3289953  23.0544503  61.9200643  35.0298213
  25.2546933  60.6058073  52.2040213  25.8446623  60.2973923  52.8918033
  24.4367173  60.1337823  52.3600113  30.0740363  60.2223883  52.4373233
  29.3855883  59.5605423  52.3723223  30.7946383  59.7762153  52.8821693
  30.7040763  56.8175513  38.4963493  30.9843053  55.9743413  38.8522913
  29.9306493  57.0498623  39.0102243  22.0235253  59.1067903  35.9554493
  22.3261153  59.1135333  35.0473643  22.7629843  58.7565763  36.4522153
  25.2420183  58.0502523  36.9410693  24.8942183  57.3726513  36.3613143
  25.4432953  57.5892033  37.7554083  21.0465383  68.4110323  36.7884293
  21.4840253  68.9539993  37.4441873  21.5313113  67.5857273  36.7980633
  18.2611183  71.1999353  44.2404553  18.5914193  70.3320413  44.0083193
  18.6902183  71.4057873  45.0709513  22.8573103  69.5308363  41.9006523
  22.5568643  69.4073333  42.8010433  22.7510593  68.6716953  41.4922253
  35.6265023  69.3104763  36.6033203  34.7957983  69.3781413  37.0740433
  35.8036853  70.2008883  36.3000063  35.0821483  66.0552243  39.1067403
  35.8440393  66.6248893  39.2127093  35.0975853  65.4879443  39.8775713
  18.5825823  64.5790173  43.3375063  17.9274663  64.3101813  42.6934763
  19.4203773  64.4694653  42.8877043  36.0881453  66.9102343  43.9509333
  36.4590283  66.1269663  43.5445303  36.7283383  67.5991443  43.7726633
  33.0715213  68.2938923  49.3639653  32.2575053  68.7236083  49.6265443
  33.4789413  68.9057333  48.7508703  35.1340653  66.3486613  36.2639923
  35.4089493  67.2565493  36.1359143  34.9451393  66.2849143  37.2001913
  31.5316263  59.3731463  37.5593553  31.9501143  59.1862443  36.7190213
  31.2252323  58.5210513  37.8696483  35.0305993  64.2855603  41.2569353
  34.6549593  63.5183533  40.8250643  34.3009113  64.6678303  41.7444283
  19.6201753  64.9642743  47.8778403  19.9874793  64.8770143  48.7574423
  19.0512573  64.2009293  47.7785263  34.4205613  63.4327123  50.8908873
  34.1891703  63.2039873  49.9906823  34.6810163  64.3526673  50.8453763
  19.1717753  61.8751833  51.7836823  18.2773803  61.8418593  52.1230533
  19.7115303  62.0738623  52.5488073  32.8593683  58.6583553  53.6688573
  33.7363863  58.6666953  54.0522573  32.8714523  57.9214393  53.0580923
  17.7963903  61.7889103  39.2800393  16.8927983  62.0519303  39.1052053
  18.2804523  62.0600273  38.5000353  34.3056953  62.5113093  44.5576593
  34.8294433  62.0175743  43.9266763  34.8916373  62.6463453  45.3024163
  34.4846673  62.5952963  48.0796143  33.5349383  62.5616503  48.1941133
  34.6659683  63.5053073  47.8445913  20.3391113  60.8454643  37.1894773
  21.0482813  60.4237863  36.7042053  19.6231053  60.9129873  36.5578123
  19.9865273  56.8993973  36.2297423  20.7093403  57.4402913  36.5478643
  20.2589793  56.6257393  35.3538963  33.7956923  61.7686443  40.4969003
  34.2916043  61.5357313  41.2817883  33.5972993  60.9298283  40.0806643
  19.6757463  56.1500163  46.1320043  20.3233653  55.5997543  45.6915203
  20.0959303  56.4043313  46.9535853  35.2244083  60.4047393  43.0306683
  35.1143363  60.2503433  43.9688953  35.9851673  59.8768333  42.7882093
  33.5709803  56.3441523  49.4889683  34.2082023  56.9575663  49.8548873
  33.7184693  56.3802183  48.5438913  36.1134353  58.2355313  36.2712823
  37.0383663  58.1036493  36.0631113  36.0910143  58.3148133  37.2249273
  36.1872843  59.0065973  38.8969533  35.3924343  58.9411093  39.4262443
  36.3916123  59.9416613  38.8854883  19.4289463  56.3055833  48.8745363
  19.0804283  56.7619653  49.6403543  19.0977163  55.4112963  48.9567793
  21.0353833  69.4775433  53.0398553  20.9923463  69.1068343  53.9213013
  21.1664843  70.4153003  53.1800373  24.7359863  71.0335023  48.6408273
  24.4951223  71.3009583  47.7538793  25.6762503  71.2040753  48.6959133
  26.9414283  57.4967713  52.3964783  26.8803173  58.0889543  53.1460193
  27.8814663  57.3893673  52.2515043  29.5788843  57.1537773  52.0357073
  30.1929253  57.4717063  51.3738153  30.1238403  56.6686363  52.6552933
  20.1010103  55.8332033  52.1496133  20.6493093  55.6520083  51.3862243
  20.1665413  55.0426143  52.6852443  30.3196883  55.7169913  48.3626363
  29.4456723  56.0505023  48.1599293  30.2107633  55.2443093  49.1878233
  31.2268863  57.9240783  49.7468083  30.8982223  57.1092543  49.3669813
  32.1751163  57.8810593  49.6233773  20.5054093  69.7896063  49.1104373
  19.7788153  69.1701353  49.0430323  20.5663243  70.1836673  48.2402453
  28.0671703  56.6339753  47.3019273  27.2843493  57.1085253  47.5816033
  27.7734633  55.7294583  47.1932453  32.6192773  57.3362853  45.3468363
  33.0600863  57.2807953  44.4989963  32.3500363  58.2520863  45.4178543
  34.4831343  56.9678093  43.3577183  34.4219743  56.0239313  43.2108203
  35.2623373  57.0758183  43.9030643  19.4112113  56.9387233  39.8232993
  20.1691473  57.0516113  39.2497023  18.9489283  57.7756433  39.7776423
  25.9525923  59.0526503  42.8135303  25.1400433  58.6783393  42.4731183
  26.4567563  58.2971583  43.1156493  30.4550903  55.7168953  44.0518373
  31.0580273  56.2889163  44.5266893  29.7143893  56.2808393  43.8292273
  33.5985503  56.1190513  39.3258653  33.7936133  57.0173963  39.5926083
  32.8115373  55.8877593  39.8191603  21.7837263  57.4651283  38.3634963
  22.3130023  56.6781083  38.2342913  22.4165583  58.1442473  38.5970493
  23.9775103  57.2026423  41.4180353  23.3477843  56.5013733  41.5850483
  23.4380243  57.9630553  41.2013513  24.1030663  56.4810403  53.8532843
  23.8214933  56.9844003  53.0893663  24.4850363  55.6832153  53.4874973
  22.1554553  69.8650793  38.6446853  21.5263433  70.3335893  39.1932683
  22.2702383  69.0200013  39.0793043  30.7046123  55.8963983  54.4313313
  30.5911573  56.2158593  55.3264833  31.5215863  56.2976493  54.1350593
  29.6104273  63.9156453  24.7948053  29.5298323  63.0011063  24.5239763
  29.1968693  64.4123523  24.0887763  27.7422313  65.6935473  26.6757323
  26.9664413  65.2135913  26.9655893  28.3935243  65.0141123  26.5013483
  21.7588143  66.0055283  27.5533083  20.9273023  65.7503993  27.9529593
  22.3669123  66.0766053  28.2891003  31.7629743  70.0995663  25.4556453
  31.3011273  69.3282903  25.7843623  32.5755293  70.1261733  25.9608903
  21.7389403  70.0395373  27.7491103  22.0417443  69.1493113  27.5701323
  22.4832993  70.5965593  27.5213353  20.1680093  60.9657173  21.3375473
  19.2796793  61.3073143  21.2355353  20.4521283  60.7657493  20.4456303
  18.1313103  63.5662823  27.2215173  18.7029213  62.7985023  27.2218813
  18.1314643  63.8651583  26.3121783  27.1831303  68.3692663  26.6827483
  27.1139583  67.4282603  26.5216613  27.9451163  68.4594073  27.2550053
  19.3737973  58.9747183  29.0084103  19.1940813  58.0772933  29.2886863
  18.9718053  59.5219053  29.6831053  28.2136473  61.1763043  26.9096413
  28.5901293  60.3034923  26.7970083  28.1155983  61.5121743  26.0186853
  22.3441483  59.5488673  22.3713853  22.4508233  60.4492403  22.6782613
  21.4333843  59.5006643  22.0808503  31.9960593  58.6713483  23.8424753
  32.8170213  58.1810053  23.8850233  32.0294673  59.2611143  24.5956593
  19.9924643  61.4707683  27.6166443  20.6734753  61.7346053  28.2353843
  19.6772693  60.6308553  27.9504453  24.1849213  62.5175043  26.7039033
  24.6927433  63.0156013  27.3444053  24.7162453  61.7410243  26.5278393
  36.2860143  60.6880233  30.4068383  35.5812313  61.0761943  29.8883493
  36.5518063  61.3830523  31.0089313  22.4685313  57.1573603  30.9702453
  22.4703753  57.6745993  30.1648353  21.6389623  56.6803783  30.9472383
  28.8556403  67.2692913  22.4692353  28.2373673  67.7342363  21.9055073
  29.3679653  67.9620393  22.8861863  23.7188163  66.7968783  29.1475953
  23.3857543  67.4237703  29.7897023  23.8954843  67.3230663  28.3677623
  32.2322073  60.6113863  26.6152293  31.5277643  60.8998753  27.1955403
  32.5934233  61.4213973  26.2551853  22.1500643  58.8683563  28.9772903
  22.4917453  59.7125613  28.6826773  21.2116453  59.0167303  29.0938243
  22.9307263  68.7649583  30.9625133  23.5481263  69.4400663  30.6809583
  22.0700383  69.1737563  30.8712633  18.2239603  67.9549443  19.8431983
  17.8467583  68.4436543  19.1116883  18.4812673  68.6274723  20.4738513
  33.8484853  70.2288993  28.8779773  33.1648373  70.8988103  28.8696443
  34.3879143  70.4269643  28.1124633  35.3008993  60.0568653  27.0061503
  34.3533903  60.0907633  27.1376933  35.6258983  60.8707603  27.3910863
  25.8328533  56.3565833  25.3017493  26.1403513  55.8012723  24.5852993
  24.9029233  56.4910293  25.1190483  32.6789013  68.7949343  22.6815123
  32.5685343  67.8523673  22.8064543  32.6757263  69.1564983  23.5677883
  30.7829033  66.9762963  28.9207563  31.1997823  66.7623073  28.0861023
  31.5068853  67.2335753  29.4916183  28.2209293  64.4214663  22.0377613
  27.2938573  64.3552043  22.2666083  28.3734113  65.3594793  21.9232853
  28.2078373  60.6931663  19.0344773  27.2682043  60.8545623  19.1197233
  28.5261633  61.4117343  18.4880763  34.7291133  65.3750183  29.0123803
  33.9009763  65.4443273  28.5373933  35.3241613  65.9604493  28.5439633
  32.2506583  65.9834963  22.5412863  31.6319003  65.6454513  21.8939163
  32.2331033  65.3394723  23.2492053  31.6933143  62.1619503  29.9578673
  31.2804323  62.9873213  30.2118663  30.9609093  61.5764543  29.7655033
  23.8265933  64.9479403  24.8197343  23.4222933  64.2356653  24.3243243
  23.9129053  64.6032643  25.7085383  24.2947633  68.6346963  26.9836553
  23.9975923  68.0292433  26.3044333  25.2447453  68.6724273  26.8725913
  22.5394553  61.7222613  28.5996383  23.0909143  61.8317953  27.8249633
  23.0538063  62.0960213  29.3151613  23.3866063  68.3728653  33.6344353
  22.4894593  68.5968623  33.8817753  23.4118933  68.4963593  32.6855753
  30.4271283  65.2221773  19.5485613  30.8664563  64.3844203  19.4023433
  31.1399703  65.8551173  19.6349753  22.2137283  65.2441973  32.2101723
  22.0745053  66.1164773  32.5789123  21.3318643  64.9014783  32.0649663
  28.5366663  70.1617843  23.5166853  28.9762573  70.9042173  23.1022243
  28.4753553  70.4044413  24.4405813  34.0088423  56.4764583  17.8626653
  33.6961083  56.5691413  18.7625723  34.7700893  57.0545613  17.8124083
  20.5270563  63.8424383  22.3203993  20.4068163  64.5686473  21.7085263
  20.2171453  63.0727293  21.8431903  18.1655933  67.0139523  28.1272633
  18.2436353  67.1488293  27.1828353  18.7797613  66.3055413  28.3200753
  19.4103563  68.7139713  24.5378813  19.0031643  68.8554303  23.6832413
  20.3016573  68.4299873  24.3350023  35.3665703  69.1603623  32.8751053
  35.4928763  68.9215503  31.9568233  35.4087083  68.3288163  33.3473133
  30.9062973  70.6574523  19.4327863  30.2128133  70.6551813  18.7730143
  31.6485833  70.2333843  19.0022033  35.2189713  61.2136083  33.8400793
  34.6033983  61.7215753  33.3116253  34.8986133  60.3134413  33.7826733
  18.2215453  68.0553693  30.6667093  18.3846493  67.5859053  29.8486463
  18.6867903  67.5477253  31.3315933  22.9934223  57.1859453  25.7027663
  22.5502373  57.9668993  25.3712183  23.5519213  57.5089343  26.4098603
  27.2804033  60.0527973  31.3062983  26.8183403  60.2610993  32.1182923
  26.8782143  59.2387323  31.0033653  32.2808543  61.2736923  32.4359643
  31.4302133  60.9742673  32.7568713  32.1210333  61.5178933  31.5243463
  29.3758253  62.7738673  34.5358433  29.7011663  61.9402423  34.1960663
  30.1638583  63.2967193  34.6836763  26.1093043  56.8070153  20.5833493
  25.4847223  56.8030023  21.3086803  26.0223163  55.9401113  20.1869463
  25.0310123  57.7306783  27.5617263  25.3282453  58.6369613  27.4809283
  25.5795683  57.2425563  26.9476833  22.7848443  62.3093023  23.4308913
  22.5589363  62.0930193  24.3355533  22.0040973  62.7421483  23.0854883
  30.0146203  62.3156393  22.0299563  29.4155093  63.0392193  21.8463183
  30.5625813  62.2533173  21.2476013  25.2247653  63.2078603  34.0969183
  25.1291253  62.2673333  33.9469583  26.0679633  63.4293673  33.7017253
  28.6211073  60.9519933  24.0602843  29.0140643  61.2692133  23.2471533
  28.9827923  60.0731813  24.1747363  20.3558193  59.6192273  32.2502963
  19.9621583  60.4667483  32.4575743  19.6676593  58.9818643  32.4411603
  26.9303243  59.7027243  35.3199703  26.2401563  59.5099443  35.9545793
  27.6735543  59.9861883  35.8524003  17.6575243  57.5420733  26.2833043
  17.3688293  58.1123593  26.9958023  18.4021003  57.0625183  26.6464273
  17.8445473  61.4840853  17.4935763  17.7620143  62.4271613  17.6350753
  17.4928533  61.3415763  16.6148113  29.2066213  63.5425683  28.1553623
  28.4747333  64.0512493  28.5043723  28.8090553  62.7255663  27.8542403
  25.6443603  60.2179883  26.5606113  25.6479663  59.7769833  25.7110653
  26.5394723  60.5397213  26.6677933  21.4945983  60.1006373  25.5200323
  21.1546033  60.5781603  26.2767373  20.7323303  59.6471493  25.1601423
  25.7063753  61.2191963  19.5512873  25.8276573  61.1778443  20.4998693
  25.3212263  62.0816113  19.3959603  29.6692123  58.9959363  27.5676563
  29.6864863  59.4468013  28.4118413  29.4207703  58.0965003  27.7810003
  24.7185253  63.5293103  18.9496173  24.1502153  63.0811353  18.3232083
  25.4274253  63.8885883  18.4161323  33.0962873  56.4091543  33.4062943
  33.4208643  55.6781203  33.9320923  33.1319383  56.0905183  32.5043933
  19.7954433  67.4305123  32.8262903  19.4109223  66.7898793  33.4245863
  20.1066623  68.1341243  33.3957633  25.9451573  64.2781663  28.3071523
  26.3121703  63.8040233  29.0532863  25.7556633  65.1523233  28.6479863
  18.8092063  59.0225353  24.4364993  18.5238983  58.6581023  25.2743613
  18.7470923  58.2905813  23.8228133  23.7350943  63.3190303  30.6255733
  23.4308013  64.1982283  30.8506093  24.6897403  63.3790093  30.6613173
  22.2632733  67.5251293  21.2222583  21.4894993  66.9848913  21.0621303
  22.9927363  67.0057903  20.8840343  33.0220713  66.5216653  27.0148973
  33.7419833  67.0171943  26.6245083  32.8202533  65.8434543  26.3702843
  28.4830653  57.9154613  21.1578363  27.6695263  57.4167783  21.0823673
  28.2892603  58.7552863  20.7414713  28.4039513  66.5925713  32.9017973
  28.3376823  65.6721383  32.6475563  27.7744653  66.6901153  33.6162613
  31.1979043  62.2874263  19.4540523  32.0858663  62.5991493  19.2791863
  31.1684133  61.4146513  19.0621103  22.3070133  67.1931673  24.8601393
  22.8248803  66.3899933  24.8058283  21.8554153  67.1310813  25.7018223
  27.1939633  68.4597953  20.1328693  27.5355333  69.2040183  19.6372013
  26.3652343  68.7729073  20.4953523  19.7914673  64.1593043  31.7727093
  19.4329613  64.8246893  32.3600433  19.4969233  63.3276593  32.1439713
  22.9927793  64.6177283  34.6566643  22.6927933  64.7634463  33.7594463
  23.7639033  64.0582573  34.5640033  28.3356243  69.4146283  32.6521773
  28.3500783  68.4827243  32.4340683  27.6281343  69.5006043  33.2911543
  33.4693313  63.5986103  18.9220383  33.3857033  64.0300323  18.0716823
  34.1887503  64.0584453  19.3547203  34.5467453  66.0553623  31.9990353
  33.8215643  66.6482403  31.8019743  35.0742913  66.0477163  31.2003723
  34.4980563  70.4528363  21.6502513  33.8556723  69.7983983  21.9246233
  34.1111223  70.8583453  20.8743183  30.0767043  67.7813793  25.4974203
  30.4290863  67.1841923  24.8375573  29.1929373  67.4558023  25.6682453
  26.1630323  68.5411483  22.9044613  26.8501453  69.0880693  23.2852203
  25.3762743  69.0852213  22.9394223  18.3022723  64.1584303  18.3961693
  19.1717573  64.4409103  18.6797613  17.8113043  64.9720173  18.2810503
  25.4657533  65.5457513  22.5169973  25.9220313  66.3562763  22.7430163
  25.1145743  65.2280653  23.3488463  27.7690143  71.0563853  29.7462273
  28.4132363  71.2623233  30.4235693  28.1319583  70.2952253  29.2933123
  21.3669313  55.8895163  22.9892493  21.2383943  55.8813063  23.9377413
  20.5431333  56.2278253  22.6383503  29.0422223  69.0596203  28.4639723
  29.6844453  68.3589363  28.5771893  29.5671573  69.8394643  28.2836613
  32.8877943  69.3444823  18.1878863  32.6615523  68.6275263  18.7803503
  32.4974143  69.0957263  17.3500613  30.8159843  69.8591103  31.6675783
  31.1516083  70.4457793  32.3453703  29.8960183  69.7283813  31.8973573
  18.3663243  57.6486283  32.4499193  17.6521763  57.8483203  33.0551803
  18.7858283  56.8725853  32.8213993  32.4694193  67.2616763  19.8493023
  32.1815893  67.7229453  20.6370903  33.2646363  66.8014533  20.1177243
  26.6448423  69.9082433  34.8363843  26.3245293  69.1891673  35.3809533
  25.9706783  70.5837503  34.9099903  20.2869233  65.9757773  20.5243753
  19.6797183  66.7156673  20.5339053  20.7618583  66.0657133  19.6981953
  29.8602023  60.1408593  30.2000643  30.2282843  59.3203803  30.5280213
  29.0000223  60.2010483  30.6156293  33.2264053  59.0965533  21.0088203
  32.5977213  59.2011203  20.2946433  32.7315973  59.3162313  21.7982083
  27.6722193  70.8171123  18.4422183  27.7734173  70.6135113  17.5124163
  26.7723933  70.5629403  18.6469963  25.1948083  61.3751483  22.4246083
  24.4864233  61.8437823  22.8659693  25.4792563  60.7173493  23.0591273
  26.8204013  62.7948183  30.4238613  27.3189263  63.2694003  31.0890463
  26.9626963  61.8711703  30.6308643  29.2263513  58.1002143  23.8641873
  29.1031293  58.1188273  22.9151383  30.1748073  58.1481083  23.9840273
  23.3983103  59.6836563  19.7996793  24.2473633  60.1206713  19.7336983
  23.0314373  59.9956823  20.6268853  34.0270873  59.0116143  31.2667003
  33.5244473  59.7521543  31.6060813  34.8427533  59.4000143  30.9503793
  32.3192883  64.2549323  24.7128363  31.3783023  64.2699553  24.8876053
  32.6336953  63.4685283  25.1588663  22.2974523  65.9368923  18.2732323
  23.0637793  65.8250283  18.8357753  22.3749213  65.2406893  17.6209093
  20.9921283  63.3693993  18.9565213  21.0724873  62.4221503  19.0682613
  21.8841033  63.7000873  19.0625873  18.6781473  69.5862953  21.9341263
  17.7521253  69.8284093  21.9246673  19.1437903  70.4137213  21.8126013
  29.6358903  68.8115323  35.1960743  29.0297063  68.8346923  34.4556493
  29.3313013  68.0798363  35.7327993  18.5192083  65.1908913  34.1921383
  19.0231103  64.6116193  34.7637613  17.7799503  65.4749143  34.7297753
  25.4215703  67.9123103  17.7467673  25.3166343  67.2975453  18.4729053
  25.2539923  67.3888993  16.9630683  25.5730023  66.5979903  33.7256903
  24.8075693  67.1664903  33.6411573  25.7545983  66.3056113  32.8325133
  28.6618433  66.9743133  18.3509663  28.1128533  67.4212433  18.9952403
  29.2837693  66.4692383  18.8747333  32.7153373  68.3285233  34.2831923
  33.4562843  68.6660993  33.7799383  31.9526053  68.4977293  33.7301693
  20.5515163  63.3338503  35.0871453  20.5920503  63.0352373  35.9956683
  21.4060663  63.7346113  34.9278973  24.3293553  65.9334053  20.2474963
  24.7509973  65.7673923  21.0906353  24.4544393  65.1234283  19.7530103
  22.4920973  61.9130603  33.0545943  21.9617433  61.4221553  32.4269283
  23.1609043  62.3414803  32.5203873  26.8421193  64.9571663  17.4952063
  27.3626853  64.2420683  17.1293213  27.4889593  65.5957533  17.7952573
  31.3899033  66.3800063  32.8187133  31.8040053  66.5345143  33.6677553
  30.4550033  66.5055283  32.9812913  31.8621203  63.7196223  34.8226283
  32.4441973  62.9648543  34.7346763  32.0382973  64.2503663  34.0457763
  22.9793273  58.8792973  33.1343233  22.8850143  58.2613723  32.4094103
  22.3990663  59.6059263  32.9073143  25.7454713  57.4366213  30.1670623
  25.2972013  57.4590473  29.3216173  25.1119913  57.0385233  30.7640923
  26.1514263  66.3320543  30.7883063  26.5702373  67.1753273  30.6159303
  25.2322893  66.4692583  30.5589843  28.4878163  64.0636723  32.1720903
  28.6074373  63.4677863  32.9115743  29.3472163  64.1006413  31.7522203
  30.8266063  64.6173913  30.7483413  30.3001283  65.1416533  30.1448553
  31.1697403  65.2501303  31.3793143  23.2252453  62.0067283  17.1933123
  23.0241513  61.1434643  17.5546463  23.0544503  61.9200643  16.2554723
  25.2546933  60.6058073  33.4296723  25.8446623  60.2973923  34.1174543
  24.4367173  60.1337823  33.5856623  30.0740363  60.2223883  33.6629743
  29.3855883  59.5605423  33.5979733  30.7946383  59.7762153  34.1078203
  30.7040763  56.8175513  19.7220003  30.9843053  55.9743413  20.0779423
  29.9306493  57.0498623  20.2358753  22.0235253  59.1067903  17.1811003
  22.3261153  59.1135333  16.2730153  22.7629843  58.7565763  17.6778663
  25.2420183  58.0502523  18.1667203  24.8942183  57.3726513  17.5869653
  25.4432953  57.5892033  18.9810593  21.0465383  68.4110323  18.0140803
  21.4840253  68.9539993  18.6698383  21.5313113  67.5857273  18.0237143
  18.2611183  71.1999353  25.4661063  18.5914193  70.3320413  25.2339703
  18.6902183  71.4057873  26.2966023  22.8573103  69.5308363  23.1263033
  22.5568643  69.4073333  24.0266943  22.7510593  68.6716953  22.7178763
  35.6265023  69.3104763  17.8289713  34.7957983  69.3781413  18.2996943
  35.8036853  70.2008883  17.5256573  35.0821483  66.0552243  20.3323913
  35.8440393  66.6248893  20.4383603  35.0975853  65.4879443  21.1032223
  18.5825823  64.5790173  24.5631573  17.9274663  64.3101813  23.9191273
  19.4203773  64.4694653  24.1133553  36.0881453  66.9102343  25.1765843
  36.4590283  66.1269663  24.7701813  36.7283383  67.5991443  24.9983143
  33.0715213  68.2938923  30.5896163  32.2575053  68.7236083  30.8521953
  33.4789413  68.9057333  29.9765213  35.1340653  66.3486613  17.4896433
  35.4089493  67.2565493  17.3615653  34.9451393  66.2849143  18.4258423
  31.5316263  59.3731463  18.7850063  31.9501143  59.1862443  17.9446723
  31.2252323  58.5210513  19.0952993  35.0305993  64.2855603  22.4825863
  34.6549593  63.5183533  22.0507153  34.3009113  64.6678303  22.9700793
  19.6201753  64.9642743  29.1034913  19.9874793  64.8770143  29.9830933
  19.0512573  64.2009293  29.0041773  34.4205613  63.4327123  32.1165383
  34.1891703  63.2039873  31.2163333  34.6810163  64.3526673  32.0710273
  19.1717753  61.8751833  33.0093333  18.2773803  61.8418593  33.3487043
  19.7115303  62.0738623  33.7744583  32.8593683  58.6583553  34.8945083
  33.7363863  58.6666953  35.2779083  32.8714523  57.9214393  34.2837433
  17.7963903  61.7889103  20.5056903  16.8927983  62.0519303  20.3308563
  18.2804523  62.0600273  19.7256863  34.3056953  62.5113093  25.7833103
  34.8294433  62.0175743  25.1523273  34.8916373  62.6463453  26.5280673
  34.4846673  62.5952963  29.3052653  33.5349383  62.5616503  29.4197643
  34.6659683  63.5053073  29.0702423  20.3391113  60.8454643  18.4151283
  21.0482813  60.4237863  17.9298563  19.6231053  60.9129873  17.7834633
  19.9865273  56.8993973  17.4553933  20.7093403  57.4402913  17.7735153
  20.2589793  56.6257393  16.5795473  33.7956923  61.7686443  21.7225513
  34.2916043  61.5357313  22.5074393  33.5972993  60.9298283  21.3063153
  19.6757463  56.1500163  27.3576553  20.3233653  55.5997543  26.9171713
  20.0959303  56.4043313  28.1792363  35.2244083  60.4047393  24.2563193
  35.1143363  60.2503433  25.1945463  35.9851673  59.8768333  24.0138603
  33.5709803  56.3441523  30.7146193  34.2082023  56.9575663  31.0805383
  33.7184693  56.3802183  29.7695423  36.1134353  58.2355313  17.4969333
  37.0383663  58.1036493  17.2887623  36.0910143  58.3148133  18.4505783
  36.1872843  59.0065973  20.1226043  35.3924343  58.9411093  20.6518953
  36.3916123  59.9416613  20.1111393  19.4289463  56.3055833  30.1001873
  19.0804283  56.7619653  30.8660053  19.0977163  55.4112963  30.1824303
  21.0353833  69.4775433  34.2655063  20.9923463  69.1068343  35.1469523
  21.1664843  70.4153003  34.4056883  24.7359863  71.0335023  29.8664783
  24.4951223  71.3009583  28.9795303  25.6762503  71.2040753  29.9215643
  26.9414283  57.4967713  33.6221293  26.8803173  58.0889543  34.3716703
  27.8814663  57.3893673  33.4771553  29.5788843  57.1537773  33.2613583
  30.1929253  57.4717063  32.5994663  30.1238403  56.6686363  33.8809443
  20.1010103  55.8332033  33.3752643  20.6493093  55.6520083  32.6118753
  20.1665413  55.0426143  33.9108953  30.3196883  55.7169913  29.5882873
  29.4456723  56.0505023  29.3855803  30.2107633  55.2443093  30.4134743
  31.2268863  57.9240783  30.9724593  30.8982223  57.1092543  30.5926323
  32.1751163  57.8810593  30.8490283  20.5054093  69.7896063  30.3360883
  19.7788153  69.1701353  30.2686833  20.5663243  70.1836673  29.4658963
  28.0671703  56.6339753  28.5275783  27.2843493  57.1085253  28.8072543
  27.7734633  55.7294583  28.4188963  32.6192773  57.3362853  26.5724873
  33.0600863  57.2807953  25.7246473  32.3500363  58.2520863  26.6435053
  34.4831343  56.9678093  24.5833693  34.4219743  56.0239313  24.4364713
  35.2623373  57.0758183  25.1287153  19.4112113  56.9387233  21.0489503
  20.1691473  57.0516113  20.4753533  18.9489283  57.7756433  21.0032933
  25.9525923  59.0526503  24.0391813  25.1400433  58.6783393  23.6987693
  26.4567563  58.2971583  24.3413003  30.4550903  55.7168953  25.2774883
  31.0580273  56.2889163  25.7523403  29.7143893  56.2808393  25.0548783
  33.5985503  56.1190513  20.5515163  33.7936133  57.0173963  20.8182593
  32.8115373  55.8877593  21.0448113  21.7837263  57.4651283  19.5891473
  22.3130023  56.6781083  19.4599423  22.4165583  58.1442473  19.8227003
  23.9775103  57.2026423  22.6436863  23.3477843  56.5013733  22.8106993
  23.4380243  57.9630553  22.4270023  24.1030663  56.4810403  35.0789353
  23.8214933  56.9844003  34.3150173  24.4850363  55.6832153  34.7131483
  22.1554553  69.8650793  19.8703363  21.5263433  70.3335893  20.4189193
  22.2702383  69.0200013  20.3049553  30.7046123  55.8963983  35.6569823
  30.5911573  56.2158593  36.5521343  31.5215863  56.2976493  35.3607103
  29.6104273  63.9156453   6.0204563  29.5298323  63.0011063   5.7496273
  29.1968693  64.4123523   5.3144273  27.7422313  65.6935473   7.9013833
  26.9664413  65.2135913   8.1912403  28.3935243  65.0141123   7.7269993
  21.7588143  66.0055283   8.7789593  20.9273023  65.7503993   9.1786103
  22.3669123  66.0766053   9.5147513  31.7629743  70.0995663   6.6812963
  31.3011273  69.3282903   7.0100133  32.5755293  70.1261733   7.1865413
  21.7389403  70.0395373   8.9747613  22.0417443  69.1493113   8.7957833
  22.4832993  70.5965593   8.7469863  18.1313103  63.5662823   8.4471683
  18.7029213  62.7985023   8.4475323  18.1314643  63.8651583   7.5378293
  27.1831303  68.3692663   7.9083993  27.1139583  67.4282603   7.7473123
  27.9451163  68.4594073   8.4806563  19.3737973  58.9747183  10.2340613
  19.1940813  58.0772933  10.5143373  18.9718053  59.5219053  10.9087563
  28.2136473  61.1763043   8.1352923  28.5901293  60.3034923   8.0226593
  28.1155983  61.5121743   7.2443363  22.3441483  59.5488673   3.5970363
  22.4508233  60.4492403   3.9039123  21.4333843  59.5006643   3.3065013
  31.9960593  58.6713483   5.0681263  32.8170213  58.1810053   5.1106743
  32.0294673  59.2611143   5.8213103  19.9924643  61.4707683   8.8422953
  20.6734753  61.7346053   9.4610353  19.6772693  60.6308553   9.1760963
  24.1849213  62.5175043   7.9295543  24.6927433  63.0156013   8.5700563
  24.7162453  61.7410243   7.7534903  36.2860143  60.6880233  11.6324893
  35.5812313  61.0761943  11.1140003  36.5518063  61.3830523  12.2345823
  22.4685313  57.1573603  12.1958963  22.4703753  57.6745993  11.3904863
  21.6389623  56.6803783  12.1728893  28.8556403  67.2692913   3.6948863
  28.2373673  67.7342363   3.1311583  29.3679653  67.9620393   4.1118373
  23.7188163  66.7968783  10.3732463  23.3857543  67.4237703  11.0153533
  23.8954843  67.3230663   9.5934133  32.2322073  60.6113863   7.8408803
  31.5277643  60.8998753   8.4211913  32.5934233  61.4213973   7.4808363
  22.1500643  58.8683563  10.2029413  22.4917453  59.7125613   9.9083283
  21.2116453  59.0167303  10.3194753  22.9307263  68.7649583  12.1881643
  23.5481263  69.4400663  11.9066093  22.0700383  69.1737563  12.0969143
  33.8484853  70.2288993  10.1036283  33.1648373  70.8988103  10.0952953
  34.3879143  70.4269643   9.3381143  35.3008993  60.0568653   8.2318013
  34.3533903  60.0907633   8.3633443  35.6258983  60.8707603   8.6167373
  25.8328533  56.3565833   6.5274003  26.1403513  55.8012723   5.8109503
  24.9029233  56.4910293   6.3446993  32.6789013  68.7949343   3.9071633
  32.5685343  67.8523673   4.0321053  32.6757263  69.1564983   4.7934393
  30.7829033  66.9762963  10.1464073  31.1997823  66.7623073   9.3117533
  31.5068853  67.2335753  10.7172693  28.2209293  64.4214663   3.2634123
  27.2938573  64.3552043   3.4922593  28.3734113  65.3594793   3.1489363
  34.7291133  65.3750183  10.2380313  33.9009763  65.4443273   9.7630443
  35.3241613  65.9604493   9.7696143  32.2506583  65.9834963   3.7669373
  31.6319003  65.6454513   3.1195673  32.2331033  65.3394723   4.4748563
  31.6933143  62.1619503  11.1835183  31.2804323  62.9873213  11.4375173
  30.9609093  61.5764543  10.9911543  23.8265933  64.9479403   6.0453853
  23.4222933  64.2356653   5.5499753  23.9129053  64.6032643   6.9341893
  24.2947633  68.6346963   8.2093063  23.9975923  68.0292433   7.5300843
  25.2447453  68.6724273   8.0982423  22.5394553  61.7222613   9.8252893
  23.0909143  61.8317953   9.0506143  23.0538063  62.0960213  10.5408123
  23.3866063  68.3728653  14.8600863  22.4894593  68.5968623  15.1074263
  23.4118933  68.4963593  13.9112263  22.2137283  65.2441973  13.4358233
  22.0745053  66.1164773  13.8045633  21.3318643  64.9014783  13.2906173
  28.5366663  70.1617843   4.7423363  28.9762573  70.9042173   4.3278753
  28.4753553  70.4044413   5.6662323  20.5270563  63.8424383   3.5460503
  20.4068163  64.5686473   2.9341773  20.2171453  63.0727293   3.0688413
  18.1655933  67.0139523   9.3529143  18.2436353  67.1488293   8.4084863
  18.7797613  66.3055413   9.5457263  19.4103563  68.7139713   5.7635323
  19.0031643  68.8554303   4.9088923  20.3016573  68.4299873   5.5606533
  35.3665703  69.1603623  14.1007563  35.4928763  68.9215503  13.1824743
  35.4087083  68.3288163  14.5729643  35.2189713  61.2136083  15.0657303
  34.6033983  61.7215753  14.5372763  34.8986133  60.3134413  15.0083243
  18.2215453  68.0553693  11.8923603  18.3846493  67.5859053  11.0742973
  18.6867903  67.5477253  12.5572443  22.9934223  57.1859453   6.9284173
  22.5502373  57.9668993   6.5968693  23.5519213  57.5089343   7.6355113
  27.2804033  60.0527973  12.5319493  26.8183403  60.2610993  13.3439433
  26.8782143  59.2387323  12.2290163  32.2808543  61.2736923  13.6616153
  31.4302133  60.9742673  13.9825223  32.1210333  61.5178933  12.7499973
  29.3758253  62.7738673  15.7614943  29.7011663  61.9402423  15.4217173
  30.1638583  63.2967193  15.9093273  25.0310123  57.7306783   8.7873773
  25.3282453  58.6369613   8.7065793  25.5795683  57.2425563   8.1733343
  22.7848443  62.3093023   4.6565423  22.5589363  62.0930193   5.5612043
  22.0040973  62.7421483   4.3111393  30.0146203  62.3156393   3.2556073
  29.4155093  63.0392193   3.0719693  30.5625813  62.2533173   2.4732523
  25.2247653  63.2078603  15.3225693  25.1291253  62.2673333  15.1726093
  26.0679633  63.4293673  14.9273763  28.6211073  60.9519933   5.2859353
  29.0140643  61.2692133   4.4728043  28.9827923  60.0731813   5.4003873
  20.3558193  59.6192273  13.4759473  19.9621583  60.4667483  13.6832253
  19.6676593  58.9818643  13.6668113  26.9303243  59.7027243  16.5456213
  26.2401563  59.5099443  17.1802303  27.6735543  59.9861883  17.0780513
  17.6575243  57.5420733   7.5089553  17.3688293  58.1123593   8.2214533
  18.4021003  57.0625183   7.8720783  29.2066213  63.5425683   9.3810133
  28.4747333  64.0512493   9.7300233  28.8090553  62.7255663   9.0798913
  25.6443603  60.2179883   7.7862623  25.6479663  59.7769833   6.9367163
  26.5394723  60.5397213   7.8934443  21.4945983  60.1006373   6.7456833
  21.1546033  60.5781603   7.5023883  20.7323303  59.6471493   6.3857933
  29.6692123  58.9959363   8.7933073  29.6864863  59.4468013   9.6374923
  29.4207703  58.0965003   9.0066513  33.0962873  56.4091543  14.6319453
  33.4208643  55.6781203  15.1577433  33.1319383  56.0905183  13.7300443
  19.7954433  67.4305123  14.0519413  19.4109223  66.7898793  14.6502373
  20.1066623  68.1341243  14.6214143  25.9451573  64.2781663   9.5328033
  26.3121703  63.8040233  10.2789373  25.7556633  65.1523233   9.8736373
  18.8092063  59.0225353   5.6621503  18.5238983  58.6581023   6.5000123
  18.7470923  58.2905813   5.0484643  23.7350943  63.3190303  11.8512243
  23.4308013  64.1982283  12.0762603  24.6897403  63.3790093  11.8869683
  22.2632733  67.5251293   2.4479093  21.4894993  66.9848913   2.2877813
  22.9927363  67.0057903   2.1096853  33.0220713  66.5216653   8.2405483
  33.7419833  67.0171943   7.8501593  32.8202533  65.8434543   7.5959353
  28.4830653  57.9154613   2.3834873  27.6695263  57.4167783   2.3080183
  28.2892603  58.7552863   1.9671223  28.4039513  66.5925713  14.1274483
  28.3376823  65.6721383  13.8732073  27.7744653  66.6901153  14.8419123
  22.3070133  67.1931673   6.0857903  22.8248803  66.3899933   6.0314793
  21.8554153  67.1310813   6.9274733  19.7914673  64.1593043  12.9983603
  19.4329613  64.8246893  13.5856943  19.4969233  63.3276593  13.3696223
  22.9927793  64.6177283  15.8823153  22.6927933  64.7634463  14.9850973
  23.7639033  64.0582573  15.7896543  28.3356243  69.4146283  13.8778283
  28.3500783  68.4827243  13.6597193  27.6281343  69.5006043  14.5168053
  34.5467453  66.0553623  13.2246863  33.8215643  66.6482403  13.0276253
  35.0742913  66.0477163  12.4260233  34.4980563  70.4528363   2.8759023
  33.8556723  69.7983983   3.1502743  34.1111223  70.8583453   2.0999693
  30.0767043  67.7813793   6.7230713  30.4290863  67.1841923   6.0632083
  29.1929373  67.4558023   6.8938963  26.1630323  68.5411483   4.1301123
  26.8501453  69.0880693   4.5108713  25.3762743  69.0852213   4.1650733
  25.4657533  65.5457513   3.7426483  25.9220313  66.3562763   3.9686673
  25.1145743  65.2280653   4.5744973  27.7690143  71.0563853  10.9718783
  28.4132363  71.2623233  11.6492203  28.1319583  70.2952253  10.5189633
  21.3669313  55.8895163   4.2149003  21.2383943  55.8813063   5.1633923
  20.5431333  56.2278253   3.8640013  29.0422223  69.0596203   9.6896233
  29.6844453  68.3589363   9.8028403  29.5671573  69.8394643   9.5093123
  30.8159843  69.8591103  12.8932293  31.1516083  70.4457793  13.5710213
  29.8960183  69.7283813  13.1230083  18.3663243  57.6486283  13.6755703
  17.6521763  57.8483203  14.2808313  18.7858283  56.8725853  14.0470503
  26.6448423  69.9082433  16.0620353  26.3245293  69.1891673  16.6066043
  25.9706783  70.5837503  16.1356413  29.8602023  60.1408593  11.4257153
  30.2282843  59.3203803  11.7536723  29.0000223  60.2010483  11.8412803
  25.1948083  61.3751483   3.6502593  24.4864233  61.8437823   4.0916203
  25.4792563  60.7173493   4.2847783  26.8204013  62.7948183  11.6495123
  27.3189263  63.2694003  12.3146973  26.9626963  61.8711703  11.8565153
  29.2263513  58.1002143   5.0898383  29.1031293  58.1188273   4.1407893
  30.1748073  58.1481083   5.2096783  34.0270873  59.0116143  12.4923513
  33.5244473  59.7521543  12.8317323  34.8427533  59.4000143  12.1760303
  32.3192883  64.2549323   5.9384873  31.3783023  64.2699553   6.1132563
  32.6336953  63.4685283   6.3845173  18.6781473  69.5862953   3.1597773
  17.7521253  69.8284093   3.1503183  19.1437903  70.4137213   3.0382523
  29.6358903  68.8115323  16.4217253  29.0297063  68.8346923  15.6813003
  29.3313013  68.0798363  16.9584503  18.5192083  65.1908913  15.4177893
  19.0231103  64.6116193  15.9894123  17.7799503  65.4749143  15.9554263
  25.5730023  66.5979903  14.9513413  24.8075693  67.1664903  14.8668083
  25.7545983  66.3056113  14.0581643  32.7153373  68.3285233  15.5088433
  33.4562843  68.6660993  15.0055893  31.9526053  68.4977293  14.9558203
  20.5515163  63.3338503  16.3127963  20.5920503  63.0352373  17.2213193
  21.4060663  63.7346113  16.1535483  22.4920973  61.9130603  14.2802453
  21.9617433  61.4221553  13.6525793  23.1609043  62.3414803  13.7460383
  31.3899033  66.3800063  14.0443643  31.8040053  66.5345143  14.8934063
  30.4550033  66.5055283  14.2069423  31.8621203  63.7196223  16.0482793
  32.4441973  62.9648543  15.9603273  32.0382973  64.2503663  15.2714273
  22.9793273  58.8792973  14.3599743  22.8850143  58.2613723  13.6350613
  22.3990663  59.6059263  14.1329653  25.7454713  57.4366213  11.3927133
  25.2972013  57.4590473  10.5472683  25.1119913  57.0385233  11.9897433
  26.1514263  66.3320543  12.0139573  26.5702373  67.1753273  11.8415813
  25.2322893  66.4692583  11.7846353  28.4878163  64.0636723  13.3977413
  28.6074373  63.4677863  14.1372253  29.3472163  64.1006413  12.9778713
  30.8266063  64.6173913  11.9739923  30.3001283  65.1416533  11.3705063
  31.1697403  65.2501303  12.6049653  25.2546933  60.6058073  14.6553233
  25.8446623  60.2973923  15.3431053  24.4367173  60.1337823  14.8113133
  30.0740363  60.2223883  14.8886253  29.3855883  59.5605423  14.8236243
  30.7946383  59.7762153  15.3334713  18.2611183  71.1999353   6.6917573
  18.5914193  70.3320413   6.4596213  18.6902183  71.4057873   7.5222533
  22.8573103  69.5308363   4.3519543  22.5568643  69.4073333   5.2523453
  22.7510593  68.6716953   3.9435273  18.5825823  64.5790173   5.7888083
  17.9274663  64.3101813   5.1447783  19.4203773  64.4694653   5.3390063
  36.0881453  66.9102343   6.4022353  36.4590283  66.1269663   5.9958323
  36.7283383  67.5991443   6.2239653  33.0715213  68.2938923  11.8152673
  32.2575053  68.7236083  12.0778463  33.4789413  68.9057333  11.2021723
  35.0305993  64.2855603   3.7082373  34.6549593  63.5183533   3.2763663
  34.3009113  64.6678303   4.1957303  19.6201753  64.9642743  10.3291423
  19.9874793  64.8770143  11.2087443  19.0512573  64.2009293  10.2298283
  34.4205613  63.4327123  13.3421893  34.1891703  63.2039873  12.4419843
  34.6810163  64.3526673  13.2966783  19.1717753  61.8751833  14.2349843
  18.2773803  61.8418593  14.5743553  19.7115303  62.0738623  15.0001093
  32.8593683  58.6583553  16.1201593  33.7363863  58.6666953  16.5035593
  32.8714523  57.9214393  15.5093943  34.3056953  62.5113093   7.0089613
  34.8294433  62.0175743   6.3779783  34.8916373  62.6463453   7.7537183
  34.4846673  62.5952963  10.5309163  33.5349383  62.5616503  10.6454153
  34.6659683  63.5053073  10.2958933  33.7956923  61.7686443   2.9482023
  34.2916043  61.5357313   3.7330903  33.5972993  60.9298283   2.5319663
  19.6757463  56.1500163   8.5833063  20.3233653  55.5997543   8.1428223
  20.0959303  56.4043313   9.4048873  35.2244083  60.4047393   5.4819703
  35.1143363  60.2503433   6.4201973  35.9851673  59.8768333   5.2395113
  33.5709803  56.3441523  11.9402703  34.2082023  56.9575663  12.3061893
  33.7184693  56.3802183  10.9951933  19.4289463  56.3055833  11.3258383
  19.0804283  56.7619653  12.0916563  19.0977163  55.4112963  11.4080813
  21.0353833  69.4775433  15.4911573  20.9923463  69.1068343  16.3726033
  21.1664843  70.4153003  15.6313393  24.7359863  71.0335023  11.0921293
  24.4951223  71.3009583  10.2051813  25.6762503  71.2040753  11.1472153
  26.9414283  57.4967713  14.8477803  26.8803173  58.0889543  15.5973213
  27.8814663  57.3893673  14.7028063  29.5788843  57.1537773  14.4870093
  30.1929253  57.4717063  13.8251173  30.1238403  56.6686363  15.1065953
  20.1010103  55.8332033  14.6009153  20.6493093  55.6520083  13.8375263
  20.1665413  55.0426143  15.1365463  30.3196883  55.7169913  10.8139383
  29.4456723  56.0505023  10.6112313  30.2107633  55.2443093  11.6391253
  31.2268863  57.9240783  12.1981103  30.8982223  57.1092543  11.8182833
  32.1751163  57.8810593  12.0746793  20.5054093  69.7896063  11.5617393
  19.7788153  69.1701353  11.4943343  20.5663243  70.1836673  10.6915473
  28.0671703  56.6339753   9.7532293  27.2843493  57.1085253  10.0329053
  27.7734633  55.7294583   9.6445473  32.6192773  57.3362853   7.7981383
  33.0600863  57.2807953   6.9502983  32.3500363  58.2520863   7.8691563
  34.4831343  56.9678093   5.8090203  34.4219743  56.0239313   5.6621223
  35.2623373  57.0758183   6.3543663  25.9525923  59.0526503   5.2648323
  25.1400433  58.6783393   4.9244203  26.4567563  58.2971583   5.5669513
  30.4550903  55.7168953   6.5031393  31.0580273  56.2889163   6.9779913
  29.7143893  56.2808393   6.2805293  33.5985503  56.1190513   1.7771673
  33.7936133  57.0173963   2.0439103  32.8115373  55.8877593   2.2704623
  23.9775103  57.2026423   3.8693373  23.3477843  56.5013733   4.0363503
  23.4380243  57.9630553   3.6526533  24.1030663  56.4810403  16.3045863
  23.8214933  56.9844003  15.5406683  24.4850363  55.6832153  15.9387993
  30.7046123  55.8963983  16.8826333  30.5911573  56.2158593  17.7777853
  31.5215863  56.2976493  16.5863613  29.6104273  45.1412963  62.3435033
  29.5298323  44.2267573  62.0726743  29.1968693  45.6380033  61.6374743
  27.7422313  46.9191983  64.2244303  26.9664413  46.4392423  64.5142873
  28.3935243  46.2397633  64.0500463  21.7588143  47.2311793  65.1020063
  20.9273023  46.9760503  65.5016573  22.3669123  47.3022563  65.8377983
  31.7629743  51.3252173  63.0043433  31.3011273  50.5539413  63.3330603
  32.5755293  51.3518243  63.5095883  21.7389403  51.2651883  65.2978083
  22.0417443  50.3749623  65.1188303  22.4832993  51.8222103  65.0700333
  20.1680093  42.1913683  58.8862453  19.2796793  42.5329653  58.7842333
  20.4521283  41.9914003  57.9943283  18.1313103  44.7919333  64.7702153
  18.7029213  44.0241533  64.7705793  18.1314643  45.0908093  63.8608763
  27.9893053  53.6110183  62.6247423  27.3704493  54.0667683  62.0541863
  28.8444833  53.7661643  62.2237123  27.1831303  49.5949173  64.2314463
  27.1139583  48.6539113  64.0703593  27.9451163  49.6850583  64.8037033
  19.3737973  40.2003693  66.5571083  19.1940813  39.3029443  66.8373843
  18.9718053  40.7475563  67.2318033  28.2136473  42.4019553  64.4583393
  28.5901293  41.5291433  64.3457063  28.1155983  42.7378253  63.5673833
  22.3441483  40.7745183  59.9200833  22.4508233  41.6748913  60.2269593
  21.4333843  40.7263153  59.6295483  31.9960593  39.8969993  61.3911733
  32.8170213  39.4066563  61.4337213  32.0294673  40.4867653  62.1443573
  19.9924643  42.6964193  65.1653423  20.6734753  42.9602563  65.7840823
  19.6772693  41.8565063  65.4991433  24.1849213  43.7431553  64.2526013
  24.6927433  44.2412523  64.8931033  24.7162453  42.9666753  64.0765373
  36.2860143  41.9136743  67.9555363  35.5812313  42.3018453  67.4370473
  36.5518063  42.6087033  68.5576293  22.4685313  38.3830113  68.5189433
  22.4703753  38.9002503  67.7135333  21.6389623  37.9060293  68.4959363
  28.8556403  48.4949423  60.0179333  28.2373673  48.9598873  59.4542053
  29.3679653  49.1876903  60.4348843  23.7188163  48.0225293  66.6962933
  23.3857543  48.6494213  67.3384003  23.8954843  48.5487173  65.9164603
  32.2322073  41.8370373  64.1639273  31.5277643  42.1255263  64.7442383
  32.5934233  42.6470483  63.8038833  22.1500643  40.0940073  66.5259883
  22.4917453  40.9382123  66.2313753  21.2116453  40.2423813  66.6425223
  22.9307263  49.9906093  68.5112113  23.5481263  50.6657173  68.2296563
  22.0700383  50.3994073  68.4199613  18.2239603  49.1805953  57.3918963
  17.8467583  49.6693053  56.6603863  18.4812673  49.8531233  58.0225493
  33.8484853  51.4545503  66.4266753  33.1648373  52.1244613  66.4183423
  34.3879143  51.6526153  65.6611613  35.3008993  41.2825163  64.5548483
  34.3533903  41.3164143  64.6863913  35.6258983  42.0964113  64.9397843
  25.8328533  37.5822343  62.8504473  26.1403513  37.0269233  62.1339973
  24.9029233  37.7166803  62.6677463  31.3843593  53.2989633  65.1411933
  31.3970753  52.8951923  64.2734193  30.8318813  54.0736923  65.0373363
  32.6789013  50.0205853  60.2302103  32.5685343  49.0780183  60.3551523
  32.6757263  50.3821493  61.1164863  30.7829033  48.2019473  66.4694543
  31.1997823  47.9879583  65.6348003  31.5068853  48.4592263  67.0403163
  28.2209293  45.6471173  59.5864593  27.2938573  45.5808553  59.8153063
  28.3734113  46.5851303  59.4719833  28.2078373  41.9188173  56.5831753
  27.2682043  42.0802133  56.6684213  28.5261633  42.6373853  56.0367743
  34.7291133  46.6006693  66.5610783  33.9009763  46.6699783  66.0860913
  35.3241613  47.1861003  66.0926613  32.2506583  47.2091473  60.0899843
  31.6319003  46.8711023  59.4426143  32.2331033  46.5651233  60.7979033
  31.6933143  43.3876013  67.5065653  31.2804323  44.2129723  67.7605643
  30.9609093  42.8021053  67.3142013  23.8265933  46.1735913  62.3684323
  23.4222933  45.4613163  61.8730223  23.9129053  45.8289153  63.2572363
  24.2947633  49.8603473  64.5323533  23.9975923  49.2548943  63.8531313
  25.2447453  49.8980783  64.4212893  22.5394553  42.9479123  66.1483363
  23.0909143  43.0574463  65.3736613  23.0538063  43.3216723  66.8638593
  32.3833243  53.4335343  68.1946633  31.9063803  54.2407533  68.0019243
  31.6995033  52.7813673  68.3472843  30.4271283  46.4478283  57.0972593
  30.8664563  45.6100713  56.9510413  31.1399703  47.0807683  57.1836733
  28.5366663  51.3874353  61.0653833  28.9762573  52.1298683  60.6509223
  28.4753553  51.6300923  61.9892793  34.0088423  37.7021093  55.4113633
  33.6961083  37.7947923  56.3112703  34.7700893  38.2802123  55.3611063
  20.5270563  45.0680893  59.8690973  20.4068163  45.7942983  59.2572243
  20.2171453  44.2983803  59.3918883  18.1655933  48.2396033  65.6759613
  18.2436353  48.3744803  64.7315333  18.7797613  47.5311923  65.8687733
  19.4103563  49.9396223  62.0865793  19.0031643  50.0810813  61.2319393
  20.3016573  49.6556383  61.8837003  29.2282443  54.0888133  68.9932843
  29.7427113  53.9996143  69.7955273  28.3851523  54.4347833  69.2860753
  31.2036843  54.3743473  58.4216843  31.0437983  54.0846413  59.3198673
  31.0383553  53.5983603  57.8862073  23.6825223  54.1542003  60.1988463
  23.5067703  53.2377543  59.9856263  22.8280963  54.5129293  60.4386263
  30.9062973  51.8831033  56.9814843  30.2128133  51.8808323  56.3217123
  31.6485833  51.4590353  56.5509013  30.4712903  53.5093743  61.0563333
  30.9269853  52.7283123  61.3701953  30.8105423  54.2200563  61.6004513
  18.2215453  49.2810203  68.2154073  18.3846493  48.8115563  67.3973443
  18.6867903  48.7733763  68.8802913  22.9934223  38.4115963  63.2514643
  22.5502373  39.1925503  62.9199163  23.5519213  38.7345853  63.9585583
  27.2804033  41.2784483  68.8549963  26.8183403  41.4867503  69.6669903
  26.8782143  40.4643833  68.5520633  26.1093043  38.0326663  58.1320473
  25.4847223  38.0286533  58.8573783  26.0223163  37.1657623  57.7356443
  25.0310123  38.9563293  65.1104243  25.3282453  39.8626123  65.0296263
  25.5795683  38.4682073  64.4963813  22.7848443  43.5349533  60.9795893
  22.5589363  43.3186703  61.8842513  22.0040973  43.9677993  60.6341863
  30.0146203  43.5412903  59.5786543  29.4155093  44.2648703  59.3950163
  30.5625813  43.4789683  58.7962993  28.6211073  42.1776443  61.6089823
  29.0140643  42.4948643  60.7958513  28.9827923  41.2988323  61.7234343
  17.6575243  38.7677243  63.8320023  17.3688293  39.3380103  64.5445003
  18.4021003  38.2881693  64.1951253  17.8445473  42.7097363  55.0422743
  17.7620143  43.6528123  55.1837733  17.4928533  42.5672273  54.1635093
  29.2066213  44.7682193  65.7040603  28.4747333  45.2769003  66.0530703
  28.8090553  43.9512173  65.4029383  25.6443603  41.4436393  64.1093093
  25.6479663  41.0026343  63.2597633  26.5394723  41.7653723  64.2164913
  21.4945983  41.3262883  63.0687303  21.1546033  41.8038113  63.8254353
  20.7323303  40.8728003  62.7088403  25.7063753  42.4448473  57.0999853
  25.8276573  42.4034953  58.0485673  25.3212263  43.3072623  56.9446583
  29.6692123  40.2215873  65.1163543  29.6864863  40.6724523  65.9605393
  29.4207703  39.3221513  65.3296983  24.7185253  44.7549613  56.4983153
  24.1502153  44.3067863  55.8719063  25.4274253  45.1142393  55.9648303
  25.9451573  45.5038173  65.8558503  26.3121703  45.0296743  66.6019843
  25.7556633  46.3779743  66.1966843  18.8092063  40.2481863  61.9851973
  18.5238983  39.8837533  62.8230593  18.7470923  39.5162323  61.3715113
  23.7350943  44.5446813  68.1742713  23.4308013  45.4238793  68.3993073
  24.6897403  44.6046603  68.2100153  22.2632733  48.7507803  58.7709563
  21.4894993  48.2105423  58.6108283  22.9927363  48.2314413  58.4327323
  33.0220713  47.7473163  64.5635953  33.7419833  48.2428453  64.1732063
  32.8202533  47.0691053  63.9189823  28.4830653  39.1411123  58.7065343
  27.6695263  38.6424293  58.6310653  28.2892603  39.9809373  58.2901693
  31.1979043  43.5130773  57.0027503  32.0858663  43.8248003  56.8278843
  31.1684133  42.6403023  56.6108083  22.3070133  48.4188183  62.4088373
  22.8248803  47.6156443  62.3545263  21.8554153  48.3567323  63.2505203
  27.1939633  49.6854463  57.6815673  27.5355333  50.4296693  57.1858993
  26.3652343  49.9985583  58.0440503  33.4693313  44.8242613  56.4707363
  33.3857033  45.2556833  55.6203803  34.1887503  45.2840963  56.9034183
  34.5467453  47.2810133  69.5477333  33.8215643  47.8738913  69.3506723
  35.0742913  47.2733673  68.7490703  34.4980563  51.6784873  59.1989493
  33.8556723  51.0240493  59.4733213  34.1111223  52.0839963  58.4230163
  30.0767043  49.0070303  63.0461183  30.4290863  48.4098433  62.3862553
  29.1929373  48.6814533  63.2169433  26.1630323  49.7667993  60.4531593
  26.8501453  50.3137203  60.8339183  25.3762743  50.3108723  60.4881203
  18.3022723  45.3840813  55.9448673  19.1717573  45.6665613  56.2284593
  17.8113043  46.1976683  55.8297483  25.4657533  46.7714023  60.0656953
  25.9220313  47.5819273  60.2917143  25.1145743  46.4537163  60.8975443
  27.7690143  52.2820363  67.2949253  28.4132363  52.4879743  67.9722673
  28.1319583  51.5208763  66.8420103  21.3669313  37.1151673  60.5379473
  21.2383943  37.1069573  61.4864393  20.5431333  37.4534763  60.1870483
  29.0422223  50.2852713  66.0126703  29.6844453  49.5845873  66.1258873
  29.5671573  51.0651153  65.8323593  32.8877943  50.5701333  55.7365843
  32.6615523  49.8531773  56.3290483  32.4974143  50.3213773  54.8987593
  18.6693973  54.5968193  56.5110303  19.0291613  55.1957533  55.8567573
  18.5286313  55.1428083  57.2845333  32.4694193  48.4873273  57.3980003
  32.1815893  48.9485963  58.1857883  33.2646363  48.0271043  57.6664223
  24.6862593  51.9799393  57.3283973  24.6772693  52.7129083  56.7128483
  23.7660953  51.7330973  57.4210933  20.2869233  47.2014283  58.0730733
  19.6797183  47.9413183  58.0826033  20.7618583  47.2913643  57.2468933
  29.8602023  41.3665103  67.7487623  30.2282843  40.5460313  68.0767193
  29.0000223  41.4266993  68.1643273  33.2264053  40.3222043  58.5575183
  32.5977213  40.4267713  57.8433413  32.7315973  40.5418823  59.3469063
  27.6722193  52.0427633  55.9909163  27.7734173  51.8391623  55.0611143
  26.7723933  51.7885913  56.1956943  25.1948083  42.6007993  59.9733063
  24.4864233  43.0694333  60.4146673  25.4792563  41.9430003  60.6078253
  26.8204013  44.0204693  67.9725593  27.3189263  44.4950513  68.6377443
  26.9626963  43.0968213  68.1795623  29.2263513  39.3258653  61.4128853
  29.1031293  39.3444783  60.4638363  30.1748073  39.3737593  61.5327253
  26.3140303  54.5613953  60.6856833  26.5681803  54.5235343  59.7636203
  25.3652783  54.4347283  60.6785083  23.3983103  40.9093073  57.3483773
  24.2473633  41.3463223  57.2823963  23.0314373  41.2213333  58.1755833
  34.0270873  40.2372653  68.8153983  33.5244473  40.9778053  69.1547793
  34.8427533  40.6256653  68.4990773  32.3192883  45.4805833  62.2615343
  31.3783023  45.4956063  62.4363033  32.6336953  44.6941793  62.7075643
  22.2974523  47.1625433  55.8219303  23.0637793  47.0506793  56.3844733
  22.3749213  46.4663403  55.1696073  20.9921283  44.5950503  56.5052193
  21.0724873  43.6478013  56.6169593  21.8841033  44.9257383  56.6112853
  34.3218463  52.6514683  63.9369603  34.4465883  53.4745853  64.4093413
  35.1884023  52.4405413  63.5893753  21.7935993  54.7445893  63.6086733
  22.5298473  54.1961353  63.8795303  22.1776913  55.6101903  63.4692723
  18.6781473  50.8119463  59.4828243  17.7521253  51.0540603  59.4733653
  19.1437903  51.6393723  59.3612993  24.9038303  53.9176203  55.4312303
  25.6966913  54.2065033  54.9794093  24.3842653  53.4868373  54.7524783
  33.9568473  53.1446333  56.8549043  33.6709983  52.7311473  56.0403223
  33.7588023  54.0734043  56.7349563  25.4215703  49.1379613  55.2954653
  25.3166343  48.5231963  56.0216033  25.2539923  48.6145503  54.5117663
  28.6618433  48.1999643  55.8996643  28.1128533  48.6468943  56.5439383
  29.2837693  47.6948893  56.4234313  24.3293553  47.1590563  57.7961943
  24.7509973  46.9930433  58.6393333  24.4544393  46.3490793  57.3017083
  26.8421193  46.1828173  55.0439043  27.3626853  45.4677193  54.6780193
  27.4889593  46.8214043  55.3439553  25.7454713  38.6622723  67.7157603
  25.2972013  38.6846983  66.8703153  25.1119913  38.2641743  68.3127903
  26.1514263  47.5577053  68.3370043  26.5702373  48.4009783  68.1646283
  25.2322893  47.6949093  68.1076823  30.8266063  45.8430423  68.2970393
  30.3001283  46.3673043  67.6935533  31.1697403  46.4757813  68.9280123
  23.2252453  43.2323793  54.7420103  23.0241513  42.3691153  55.1033443
  23.0544503  43.1457153  53.8041703  24.0021683  53.8630063  69.4527773
  23.4642773  54.5876123  69.1336473  24.2555643  53.3860403  68.6625113
  30.7040763  38.0432023  57.2706983  30.9843053  37.1999923  57.6266403
  29.9306493  38.2755133  57.7845733  22.0235253  40.3324413  54.7297983
  22.3261153  40.3391843  53.8217133  22.7629843  39.9822273  55.2265643
  25.2420183  39.2759033  55.7154183  24.8942183  38.5983023  55.1356633
  25.4432953  38.8148543  56.5297573  27.4069223  54.2639783  57.3340783
  28.3020013  54.6024753  57.3559543  27.4386853  53.5419193  56.7065063
  21.0465383  49.6366833  55.5627783  21.4840253  50.1796503  56.2185363
  21.5313113  48.8113783  55.5724123  18.2611183  52.4255863  63.0148043
  18.5914193  51.5576923  62.7826683  18.6902183  52.6314383  63.8453003
  22.8573103  50.7564873  60.6750013  22.5568643  50.6329843  61.5753923
  22.7510593  49.8973463  60.2665743  18.7501393  53.2926453  65.7529673
  18.3132383  53.4727253  66.5853823  19.3179073  54.0501073  65.6111393
  35.6265023  50.5361273  55.3776693  34.7957983  50.6037923  55.8483923
  35.8036853  51.4265393  55.0743553  35.0821483  47.2808753  57.8810893
  35.8440393  47.8505403  57.9870583  35.0975853  46.7135953  58.6519203
  18.5825823  45.8046683  62.1118553  17.9274663  45.5358323  61.4678253
  19.4203773  45.6951163  61.6620533  36.0881453  48.1358853  62.7252823
  36.4590283  47.3526173  62.3188793  36.7283383  48.8247953  62.5470123
  33.0715213  49.5195433  68.1383143  32.2575053  49.9492593  68.4008933
  33.4789413  50.1313843  67.5252193  35.1340653  47.5743123  55.0383413
  35.4089493  48.4822003  54.9102633  34.9451393  47.5105653  55.9745403
  31.5316263  40.5987973  56.3337043  31.9501143  40.4118953  55.4933703
  31.2252323  39.7467023  56.6439973  35.0305993  45.5112113  60.0312843
  34.6549593  44.7440043  59.5994133  34.3009113  45.8934813  60.5187773
  19.6201753  46.1899253  66.6521893  19.9874793  46.1026653  67.5317913
  19.0512573  45.4265803  66.5528753  34.4205613  44.6583633  69.6652363
  34.1891703  44.4296383  68.7650313  34.6810163  45.5783183  69.6197253
  17.7963903  43.0145613  58.0543883  16.8927983  43.2775813  57.8795543
  18.2804523  43.2856783  57.2743843  34.3056953  43.7369603  63.3320083
  34.8294433  43.2432253  62.7010253  34.8916373  43.8719963  64.0767653
  34.4846673  43.8209473  66.8539633  33.5349383  43.7873013  66.9684623
  34.6659683  44.7309583  66.6189403  20.3391113  42.0711153  55.9638263
  21.0482813  41.6494373  55.4785543  19.6231053  42.1386383  55.3321613
  19.9865273  38.1250483  55.0040913  20.7093403  38.6659423  55.3222133
  20.2589793  37.8513903  54.1282453  33.7956923  42.9942953  59.2712493
  34.2916043  42.7613823  60.0561373  33.5972993  42.1554793  58.8550133
  19.6757463  37.3756673  64.9063533  20.3233653  36.8254053  64.4658693
  20.0959303  37.6299823  65.7279343  35.2244083  41.6303903  61.8050173
  35.1143363  41.4759943  62.7432443  35.9851673  41.1024843  61.5625583
  33.5709803  37.5698033  68.2633173  34.2082023  38.1832173  68.6292363
  33.7184693  37.6058693  67.3182403  36.1134353  39.4611823  55.0456313
  37.0383663  39.3293003  54.8374603  36.0910143  39.5404643  55.9992763
  36.1872843  40.2322483  57.6713023  35.3924343  40.1667603  58.2005933
  36.3916123  41.1673123  57.6598373  33.1291263  54.2714033  61.6651413
  33.7250333  53.9498603  60.9885833  33.3869413  53.7985853  62.4564683
  19.4289463  37.5312343  67.6488853  19.0804283  37.9876163  68.4147033
  19.0977163  36.6369473  67.7311283  24.7359863  52.2591533  67.4151763
  24.4951223  52.5266093  66.5282283  25.6762503  52.4297263  67.4702623
  35.9964023  54.2785913  68.2162403  35.5022303  54.6754783  67.4989533
  35.3877313  53.6535123  68.6099683  20.8741863  53.6494193  68.9339823
  20.2802183  53.5178893  69.6729863  20.8665703  52.8132333  68.4681923
  30.3196883  36.9426423  67.1369853  29.4456723  37.2761533  66.9342783
  30.2107633  36.4699603  67.9621723  31.2268863  39.1497293  68.5211573
  30.8982223  38.3349053  68.1413303  32.1751163  39.1067103  68.3977263
  33.6803473  54.9209333  65.4949143  33.2206443  55.6725143  65.1207163
  33.0515933  54.2015803  65.4363943  20.5054093  51.0152573  67.8847863
  19.7788153  50.3957863  67.8173813  20.5663243  51.4093183  67.0145943
  24.1099193  53.2297573  64.6697273  24.6264213  52.6184933  64.1445533
  24.7596573  53.7326353  65.1608283  26.8494693  54.1206063  65.4966253
  27.1372503  53.8660363  64.6199263  27.3617913  53.5683423  66.0871823
  28.0671703  37.8596263  66.0762763  27.2843493  38.3341763  66.3559523
  27.7734633  36.9551093  65.9675943  32.6192773  38.5619363  64.1211853
  33.0600863  38.5064463  63.2733453  32.3500363  39.4777373  64.1922033
  34.4831343  38.1934603  62.1320673  34.4219743  37.2495823  61.9851693
  35.2623373  38.3014693  62.6774133  18.7884093  54.3326963  61.0944623
  18.6206133  53.6997643  61.7926513  17.9218603  54.5386363  60.7438813
  19.4112113  38.1643743  58.5976483  20.1691473  38.2772623  58.0240513
  18.9489283  39.0012943  58.5519913  25.9525923  40.2783013  61.5878793
  25.1400433  39.9039903  61.2474673  26.4567563  39.5228093  61.8899983
  30.4550903  36.9425463  62.8261863  31.0580273  37.5145673  63.3010383
  29.7143893  37.5064903  62.6035763  33.5985503  37.3447023  58.1002143
  33.7936133  38.2430473  58.3669573  32.8115373  37.1134103  58.5935093
  20.3946793  53.0260193  58.5394763  19.8694413  53.4068223  57.8356723
  20.3191373  53.6510963  59.2604473  21.7837263  38.6907793  57.1378453
  22.3130023  37.9037593  57.0086403  22.4165583  39.3698983  57.3713983
  23.9775103  38.4282933  60.1923843  23.3477843  37.7270243  60.3593973
  23.4380243  39.1887063  59.9757003  35.1512113  54.5847733  59.8608703
  35.3264303  53.8985473  59.2169623  34.4533683  55.1094783  59.4685373
  22.9939763  54.9742573  57.4144013  23.7258583  54.6901853  56.8667903
  23.2533433  54.7355853  58.3043393  22.1554553  51.0907303  57.4190343
  21.5263433  51.5592403  57.9676173  22.2702383  50.2456523  57.8536533
  29.6104273  45.1412963  43.5691543  29.5298323  44.2267573  43.2983253
  29.1968693  45.6380033  42.8631253  27.7422313  46.9191983  45.4500813
  26.9664413  46.4392423  45.7399383  28.3935243  46.2397633  45.2756973
  21.7588143  47.2311793  46.3276573  20.9273023  46.9760503  46.7273083
  22.3669123  47.3022563  47.0634493  31.7629743  51.3252173  44.2299943
  31.3011273  50.5539413  44.5587113  32.5755293  51.3518243  44.7352393
  21.7389403  51.2651883  46.5234593  22.0417443  50.3749623  46.3444813
  22.4832993  51.8222103  46.2956843  20.1680093  42.1913683  40.1118963
  19.2796793  42.5329653  40.0098843  20.4521283  41.9914003  39.2199793
  18.1313103  44.7919333  45.9958663  18.7029213  44.0241533  45.9962303
  18.1314643  45.0908093  45.0865273  27.9893053  53.6110183  43.8503933
  27.3704493  54.0667683  43.2798373  28.8444833  53.7661643  43.4493633
  27.1831303  49.5949173  45.4570973  27.1139583  48.6539113  45.2960103
  27.9451163  49.6850583  46.0293543  19.3737973  40.2003693  47.7827593
  19.1940813  39.3029443  48.0630353  18.9718053  40.7475563  48.4574543
  28.2136473  42.4019553  45.6839903  28.5901293  41.5291433  45.5713573
  28.1155983  42.7378253  44.7930343  22.3441483  40.7745183  41.1457343
  22.4508233  41.6748913  41.4526103  21.4333843  40.7263153  40.8551993
  31.9960593  39.8969993  42.6168243  32.8170213  39.4066563  42.6593723
  32.0294673  40.4867653  43.3700083  19.9924643  42.6964193  46.3909933
  20.6734753  42.9602563  47.0097333  19.6772693  41.8565063  46.7247943
  24.1849213  43.7431553  45.4782523  24.6927433  44.2412523  46.1187543
  24.7162453  42.9666753  45.3021883  36.2860143  41.9136743  49.1811873
  35.5812313  42.3018453  48.6626983  36.5518063  42.6087033  49.7832803
  22.4685313  38.3830113  49.7445943  22.4703753  38.9002503  48.9391843
  21.6389623  37.9060293  49.7215873  28.8556403  48.4949423  41.2435843
  28.2373673  48.9598873  40.6798563  29.3679653  49.1876903  41.6605353
  23.7188163  48.0225293  47.9219443  23.3857543  48.6494213  48.5640513
  23.8954843  48.5487173  47.1421113  32.2322073  41.8370373  45.3895783
  31.5277643  42.1255263  45.9698893  32.5934233  42.6470483  45.0295343
  22.1500643  40.0940073  47.7516393  22.4917453  40.9382123  47.4570263
  21.2116453  40.2423813  47.8681733  22.9307263  49.9906093  49.7368623
  23.5481263  50.6657173  49.4553073  22.0700383  50.3994073  49.6456123
  18.2239603  49.1805953  38.6175473  17.8467583  49.6693053  37.8860373
  18.4812673  49.8531233  39.2482003  33.8484853  51.4545503  47.6523263
  33.1648373  52.1244613  47.6439933  34.3879143  51.6526153  46.8868123
  35.3008993  41.2825163  45.7804993  34.3533903  41.3164143  45.9120423
  35.6258983  42.0964113  46.1654353  25.8328533  37.5822343  44.0760983
  26.1403513  37.0269233  43.3596483  24.9029233  37.7166803  43.8933973
  31.3843593  53.2989633  46.3668443  31.3970753  52.8951923  45.4990703
  30.8318813  54.0736923  46.2629873  32.6789013  50.0205853  41.4558613
  32.5685343  49.0780183  41.5808033  32.6757263  50.3821493  42.3421373
  30.7829033  48.2019473  47.6951053  31.1997823  47.9879583  46.8604513
  31.5068853  48.4592263  48.2659673  28.2209293  45.6471173  40.8121103
  27.2938573  45.5808553  41.0409573  28.3734113  46.5851303  40.6976343
  28.2078373  41.9188173  37.8088263  27.2682043  42.0802133  37.8940723
  28.5261633  42.6373853  37.2624253  34.7291133  46.6006693  47.7867293
  33.9009763  46.6699783  47.3117423  35.3241613  47.1861003  47.3183123
  32.2506583  47.2091473  41.3156353  31.6319003  46.8711023  40.6682653
  32.2331033  46.5651233  42.0235543  31.6933143  43.3876013  48.7322163
  31.2804323  44.2129723  48.9862153  30.9609093  42.8021053  48.5398523
  23.8265933  46.1735913  43.5940833  23.4222933  45.4613163  43.0986733
  23.9129053  45.8289153  44.4828873  24.2947633  49.8603473  45.7580043
  23.9975923  49.2548943  45.0787823  25.2447453  49.8980783  45.6469403
  22.5394553  42.9479123  47.3739873  23.0909143  43.0574463  46.5993123
  23.0538063  43.3216723  48.0895103  32.3833243  53.4335343  49.4203143
  31.9063803  54.2407533  49.2275753  31.6995033  52.7813673  49.5729353
  23.3866063  49.5985163  52.4087843  22.4894593  49.8225133  52.6561243
  23.4118933  49.7220103  51.4599243  30.4271283  46.4478283  38.3229103
  30.8664563  45.6100713  38.1766923  31.1399703  47.0807683  38.4093243
  22.2137283  46.4698483  50.9845213  22.0745053  47.3421283  51.3532613
  21.3318643  46.1271293  50.8393153  28.5366663  51.3874353  42.2910343
  28.9762573  52.1298683  41.8765733  28.4753553  51.6300923  43.2149303
  24.0117633  52.4120183  53.1930363  23.9833063  52.8163133  52.3258793
  23.8482603  51.4830543  53.0301963  20.5270563  45.0680893  41.0947483
  20.4068163  45.7942983  40.4828753  20.2171453  44.2983803  40.6175393
  35.9632453  53.1947283  54.4894533  36.4392173  53.6730173  55.1683613
  36.5839613  53.1264773  53.7640033  18.1655933  48.2396033  46.9016123
  18.2436353  48.3744803  45.9571843  18.7797613  47.5311923  47.0944243
  19.4103563  49.9396223  43.3122303  19.0031643  50.0810813  42.4575903
  20.3016573  49.6556383  43.1093513  35.3665703  50.3860133  51.6494543
  35.4928763  50.1472013  50.7311723  35.4087083  49.5544673  52.1216623
  29.2282443  54.0888133  50.2189353  29.7427113  53.9996143  51.0211783
  28.3851523  54.4347833  50.5117263  31.2036843  54.3743473  39.6473353
  31.0437983  54.0846413  40.5455183  31.0383553  53.5983603  39.1118583
  23.6825223  54.1542003  41.4244973  23.5067703  53.2377543  41.2112773
  22.8280963  54.5129293  41.6642773  30.9062973  51.8831033  38.2071353
  30.2128133  51.8808323  37.5473633  31.6485833  51.4590353  37.7765523
  30.4712903  53.5093743  42.2819843  30.9269853  52.7283123  42.5958463
  30.8105423  54.2200563  42.8261023  35.2189713  42.4392593  52.6144283
  34.6033983  42.9472263  52.0859743  34.8986133  41.5390923  52.5570223
  18.2215453  49.2810203  49.4410583  18.3846493  48.8115563  48.6229953
  18.6867903  48.7733763  50.1059423  22.9934223  38.4115963  44.4771153
  22.5502373  39.1925503  44.1455673  23.5519213  38.7345853  45.1842093
  27.2804033  41.2784483  50.0806473  26.8183403  41.4867503  50.8926413
  26.8782143  40.4643833  49.7777143  32.2808543  42.4993433  51.2103133
  31.4302133  42.1999183  51.5312203  32.1210333  42.7435443  50.2986953
  29.3758253  43.9995183  53.3101923  29.7011663  43.1658933  52.9704153
  30.1638583  44.5223703  53.4580253  26.1093043  38.0326663  39.3576983
  25.4847223  38.0286533  40.0830293  26.0223163  37.1657623  38.9612953
  25.0310123  38.9563293  46.3360753  25.3282453  39.8626123  46.2552773
  25.5795683  38.4682073  45.7220323  22.7848443  43.5349533  42.2052403
  22.5589363  43.3186703  43.1099023  22.0040973  43.9677993  41.8598373
  30.0146203  43.5412903  40.8043053  29.4155093  44.2648703  40.6206673
  30.5625813  43.4789683  40.0219503  25.2247653  44.4335113  52.8712673
  25.1291253  43.4929843  52.7213073  26.0679633  44.6550183  52.4760743
  28.6211073  42.1776443  42.8346333  29.0140643  42.4948643  42.0215023
  28.9827923  41.2988323  42.9490853  20.3558193  40.8448783  51.0246453
  19.9621583  41.6923993  51.2319233  19.6676593  40.2075153  51.2155093
  26.9303243  40.9283753  54.0943193  26.2401563  40.7355953  54.7289283
  27.6735543  41.2118393  54.6267493  17.6575243  38.7677243  45.0576533
  17.3688293  39.3380103  45.7701513  18.4021003  38.2881693  45.4207763
  17.8445473  42.7097363  36.2679253  17.7620143  43.6528123  36.4094243
  17.4928533  42.5672273  35.3891603  29.2066213  44.7682193  46.9297113
  28.4747333  45.2769003  47.2787213  28.8090553  43.9512173  46.6285893
  25.6443603  41.4436393  45.3349603  25.6479663  41.0026343  44.4854143
  26.5394723  41.7653723  45.4421423  21.4945983  41.3262883  44.2943813
  21.1546033  41.8038113  45.0510863  20.7323303  40.8728003  43.9344913
  25.7063753  42.4448473  38.3256363  25.8276573  42.4034953  39.2742183
  25.3212263  43.3072623  38.1703093  29.6692123  40.2215873  46.3420053
  29.6864863  40.6724523  47.1861903  29.4207703  39.3221513  46.5553493
  24.7185253  44.7549613  37.7239663  24.1502153  44.3067863  37.0975573
  25.4274253  45.1142393  37.1904813  33.0962873  37.6348053  52.1806433
  33.4208643  36.9037713  52.7064413  33.1319383  37.3161693  51.2787423
  19.7954433  48.6561633  51.6006393  19.4109223  48.0155303  52.1989353
  20.1066623  49.3597753  52.1701123  25.9451573  45.5038173  47.0815013
  26.3121703  45.0296743  47.8276353  25.7556633  46.3779743  47.4223353
  18.8092063  40.2481863  43.2108483  18.5238983  39.8837533  44.0487103
  18.7470923  39.5162323  42.5971623  23.7350943  44.5446813  49.3999223
  23.4308013  45.4238793  49.6249583  24.6897403  44.6046603  49.4356663
  22.2632733  48.7507803  39.9966073  21.4894993  48.2105423  39.8364793
  22.9927363  48.2314413  39.6583833  33.0220713  47.7473163  45.7892463
  33.7419833  48.2428453  45.3988573  32.8202533  47.0691053  45.1446333
  28.4830653  39.1411123  39.9321853  27.6695263  38.6424293  39.8567163
  28.2892603  39.9809373  39.5158203  28.4039513  47.8182223  51.6761463
  28.3376823  46.8977893  51.4219053  27.7744653  47.9157663  52.3906103
  31.1979043  43.5130773  38.2284013  32.0858663  43.8248003  38.0535353
  31.1684133  42.6403023  37.8364593  22.3070133  48.4188183  43.6344883
  22.8248803  47.6156443  43.5801773  21.8554153  48.3567323  44.4761713
  27.1939633  49.6854463  38.9072183  27.5355333  50.4296693  38.4115503
  26.3652343  49.9985583  39.2697013  19.7914673  45.3849553  50.5470583
  19.4329613  46.0503403  51.1343923  19.4969233  44.5533103  50.9183203
  22.9927793  45.8433793  53.4310133  22.6927933  45.9890973  52.5337953
  23.7639033  45.2839083  53.3383523  28.3356243  50.6402793  51.4265263
  28.3500783  49.7083753  51.2084173  27.6281343  50.7262553  52.0655033
  33.4693313  44.8242613  37.6963873  33.3857033  45.2556833  36.8460313
  34.1887503  45.2840963  38.1290693  34.5467453  47.2810133  50.7733843
  33.8215643  47.8738913  50.5763233  35.0742913  47.2733673  49.9747213
  34.4980563  51.6784873  40.4246003  33.8556723  51.0240493  40.6989723
  34.1111223  52.0839963  39.6486673  30.0767043  49.0070303  44.2717693
  30.4290863  48.4098433  43.6119063  29.1929373  48.6814533  44.4425943
  26.1630323  49.7667993  41.6788103  26.8501453  50.3137203  42.0595693
  25.3762743  50.3108723  41.7137713  18.3022723  45.3840813  37.1705183
  19.1717573  45.6665613  37.4541103  17.8113043  46.1976683  37.0553993
  25.4657533  46.7714023  41.2913463  25.9220313  47.5819273  41.5173653
  25.1145743  46.4537163  42.1231953  27.7690143  52.2820363  48.5205763
  28.4132363  52.4879743  49.1979183  28.1319583  51.5208763  48.0676613
  21.3669313  37.1151673  41.7635983  21.2383943  37.1069573  42.7120903
  20.5431333  37.4534763  41.4126993  29.0422223  50.2852713  47.2383213
  29.6844453  49.5845873  47.3515383  29.5671573  51.0651153  47.0580103
  32.8877943  50.5701333  36.9622353  32.6615523  49.8531773  37.5546993
  32.4974143  50.3213773  36.1244103  30.8159843  51.0847613  50.4419273
  31.1516083  51.6714303  51.1197193  29.8960183  50.9540323  50.6717063
  18.6693973  54.5968193  37.7366813  19.0291613  55.1957533  37.0824083
  18.5286313  55.1428083  38.5101843  18.3663243  38.8742793  51.2242683
  17.6521763  39.0739713  51.8295293  18.7858283  38.0982363  51.5957483
  32.4694193  48.4873273  38.6236513  32.1815893  48.9485963  39.4114393
  33.2646363  48.0271043  38.8920733  18.6535833  52.8623053  52.2109213
  18.7626953  51.9217793  52.0704603  18.0016393  53.1277803  51.5622943
  26.6448423  51.1338943  53.6107333  26.3245293  50.4148183  54.1553023
  25.9706783  51.8094013  53.6843393  24.6862593  51.9799393  38.5540483
  24.6772693  52.7129083  37.9384993  23.7660953  51.7330973  38.6467443
  20.2869233  47.2014283  39.2987243  19.6797183  47.9413183  39.3082543
  20.7618583  47.2913643  38.4725443  29.8602023  41.3665103  48.9744133
  30.2282843  40.5460313  49.3023703  29.0000223  41.4266993  49.3899783
  33.2264053  40.3222043  39.7831693  32.5977213  40.4267713  39.0689923
  32.7315973  40.5418823  40.5725573  27.6722193  52.0427633  37.2165673
  27.7734173  51.8391623  36.2867653  26.7723933  51.7885913  37.4213453
  25.1948083  42.6007993  41.1989573  24.4864233  43.0694333  41.6403183
  25.4792563  41.9430003  41.8334763  26.8204013  44.0204693  49.1982103
  27.3189263  44.4950513  49.8633953  26.9626963  43.0968213  49.4052133
  29.2263513  39.3258653  42.6385363  29.1031293  39.3444783  41.6894873
  30.1748073  39.3737593  42.7583763  26.3140303  54.5613953  41.9113343
  26.5681803  54.5235343  40.9892713  25.3652783  54.4347283  41.9041593
  23.3983103  40.9093073  38.5740283  24.2473633  41.3463223  38.5080473
  23.0314373  41.2213333  39.4012343  34.0270873  40.2372653  50.0410493
  33.5244473  40.9778053  50.3804303  34.8427533  40.6256653  49.7247283
  32.3192883  45.4805833  43.4871853  31.3783023  45.4956063  43.6619543
  32.6336953  44.6941793  43.9332153  22.2974523  47.1625433  37.0475813
  23.0637793  47.0506793  37.6101243  22.3749213  46.4663403  36.3952583
  20.9921283  44.5950503  37.7308703  21.0724873  43.6478013  37.8426103
  21.8841033  44.9257383  37.8369363  34.3218463  52.6514683  45.1626113
  34.4465883  53.4745853  45.6349923  35.1884023  52.4405413  44.8150263
  21.7935993  54.7445893  44.8343243  22.5298473  54.1961353  45.1051813
  22.1776913  55.6101903  44.6949233  18.6781473  50.8119463  40.7084753
  17.7521253  51.0540603  40.6990163  19.1437903  51.6393723  40.5869503
  20.7994273  53.9291963  54.0228823  21.6007003  54.2504013  54.4364223
  20.2846093  53.5687543  54.7448733  24.9038303  53.9176203  36.6568813
  25.6966913  54.2065033  36.2050603  24.3842653  53.4868373  35.9781293
  29.6358903  50.0371833  53.9704233  29.0297063  50.0603433  53.2299983
  29.3313013  49.3054873  54.5071483  31.0659273  53.7652123  52.5813643
  32.0181023  53.6810143  52.5313883  30.9187493  54.4293833  53.2547433
  33.9568473  53.1446333  38.0805553  33.6709983  52.7311473  37.2659733
  33.7588023  54.0734043  37.9606073  18.5192083  46.4165423  52.9664873
  19.0231103  45.8372703  53.5381103  17.7799503  46.7005653  53.5041243
  25.4215703  49.1379613  36.5211163  25.3166343  48.5231963  37.2472543
  25.2539923  48.6145503  35.7374173  25.5730023  47.8236413  52.5000393
  24.8075693  48.3921413  52.4155063  25.7545983  47.5312623  51.6068623
  28.6618433  48.1999643  37.1253153  28.1128533  48.6468943  37.7695893
  29.2837693  47.6948893  37.6490823  32.7153373  49.5541743  53.0575413
  33.4562843  49.8917503  52.5542873  31.9526053  49.7233803  52.5045183
  20.5515163  44.5595013  53.8614943  20.5920503  44.2608883  54.7700173
  21.4060663  44.9602623  53.7022463  24.3293553  47.1590563  39.0218453
  24.7509973  46.9930433  39.8649843  24.4544393  46.3490793  38.5273593
  22.4920973  43.1387113  51.8289433  21.9617433  42.6478063  51.2012773
  23.1609043  43.5671313  51.2947363  26.8421193  46.1828173  36.2695553
  27.3626853  45.4677193  35.9036703  27.4889593  46.8214043  36.5696063
  31.3899033  47.6056573  51.5930623  31.8040053  47.7601653  52.4421043
  30.4550033  47.7311793  51.7556403  31.8621203  44.9452733  53.5969773
  32.4441973  44.1905053  53.5090253  32.0382973  45.4760173  52.8201253
  22.9793273  40.1049483  51.9086723  22.8850143  39.4870233  51.1837593
  22.3990663  40.8315773  51.6816633  25.7454713  38.6622723  48.9414113
  25.2972013  38.6846983  48.0959663  25.1119913  38.2641743  49.5384413
  26.1514263  47.5577053  49.5626553  26.5702373  48.4009783  49.3902793
  25.2322893  47.6949093  49.3333333  28.4878163  45.2893233  50.9464393
  28.6074373  44.6934373  51.6859233  29.3472163  45.3262923  50.5265693
  30.8266063  45.8430423  49.5226903  30.3001283  46.3673043  48.9192043
  31.1697403  46.4757813  50.1536633  23.2252453  43.2323793  35.9676613
  23.0241513  42.3691153  36.3289953  23.0544503  43.1457153  35.0298213
  24.0021683  53.8630063  50.6784283  23.4642773  54.5876123  50.3592983
  24.2555643  53.3860403  49.8881623  25.2546933  41.8314583  52.2040213
  25.8446623  41.5230433  52.8918033  24.4367173  41.3594333  52.3600113
  30.0740363  41.4480393  52.4373233  29.3855883  40.7861933  52.3723223
  30.7946383  41.0018663  52.8821693  22.0235253  40.3324413  35.9554493
  22.3261153  40.3391843  35.0473643  22.7629843  39.9822273  36.4522153
  26.8583893  55.0981273  50.9370933  26.7842593  56.0016413  51.2443303
  25.9562733  54.7793173  50.9093003  25.2420183  39.2759033  36.9410693
  24.8942183  38.5983023  36.3613143  25.4432953  38.8148543  37.7554083
  27.4069223  54.2639783  38.5597293  28.3020013  54.6024753  38.5816053
  27.4386853  53.5419193  37.9321573  21.0465383  49.6366833  36.7884293
  21.4840253  50.1796503  37.4441873  21.5313113  48.8113783  36.7980633
  18.2611183  52.4255863  44.2404553  18.5914193  51.5576923  44.0083193
  18.6902183  52.6314383  45.0709513  22.8573103  50.7564873  41.9006523
  22.5568643  50.6329843  42.8010433  22.7510593  49.8973463  41.4922253
  18.7501393  53.2926453  46.9786183  18.3132383  53.4727253  47.8110333
  19.3179073  54.0501073  46.8367903  34.3863573  52.7943453  51.2663493
  33.7865563  52.8536013  50.5227413  34.5157473  51.8548433  51.3960343
  35.6265023  50.5361273  36.6033203  34.7957983  50.6037923  37.0740433
  35.8036853  51.4265393  36.3000063  35.0821483  47.2808753  39.1067403
  35.8440393  47.8505403  39.2127093  35.0975853  46.7135953  39.8775713
  18.5825823  45.8046683  43.3375063  17.9274663  45.5358323  42.6934763
  19.4203773  45.6951163  42.8877043  36.0881453  48.1358853  43.9509333
  36.4590283  47.3526173  43.5445303  36.7283383  48.8247953  43.7726633
  33.0715213  49.5195433  49.3639653  32.2575053  49.9492593  49.6265443
  33.4789413  50.1313843  48.7508703  35.1340653  47.5743123  36.2639923
  35.4089493  48.4822003  36.1359143  34.9451393  47.5105653  37.2001913
  35.0305993  45.5112113  41.2569353  34.6549593  44.7440043  40.8250643
  34.3009113  45.8934813  41.7444283  19.6201753  46.1899253  47.8778403
  19.9874793  46.1026653  48.7574423  19.0512573  45.4265803  47.7785263
  34.4205613  44.6583633  50.8908873  34.1891703  44.4296383  49.9906823
  34.6810163  45.5783183  50.8453763  19.1717753  43.1008343  51.7836823
  18.2773803  43.0675103  52.1230533  19.7115303  43.2995133  52.5488073
  32.8593683  39.8840063  53.6688573  33.7363863  39.8923463  54.0522573
  32.8714523  39.1470903  53.0580923  17.7963903  43.0145613  39.2800393
  16.8927983  43.2775813  39.1052053  18.2804523  43.2856783  38.5000353
  34.3056953  43.7369603  44.5576593  34.8294433  43.2432253  43.9266763
  34.8916373  43.8719963  45.3024163  34.4846673  43.8209473  48.0796143
  33.5349383  43.7873013  48.1941133  34.6659683  44.7309583  47.8445913
  20.3391113  42.0711153  37.1894773  21.0482813  41.6494373  36.7042053
  19.6231053  42.1386383  36.5578123  19.9865273  38.1250483  36.2297423
  20.7093403  38.6659423  36.5478643  20.2589793  37.8513903  35.3538963
  33.7956923  42.9942953  40.4969003  34.2916043  42.7613823  41.2817883
  33.5972993  42.1554793  40.0806643  19.6757463  37.3756673  46.1320043
  20.3233653  36.8254053  45.6915203  20.0959303  37.6299823  46.9535853
  35.2244083  41.6303903  43.0306683  35.1143363  41.4759943  43.9688953
  35.9851673  41.1024843  42.7882093  33.5709803  37.5698033  49.4889683
  34.2082023  38.1832173  49.8548873  33.7184693  37.6058693  48.5438913
  33.1291263  54.2714033  42.8907923  33.7250333  53.9498603  42.2142343
  33.3869413  53.7985853  43.6821193  19.4289463  37.5312343  48.8745363
  19.0804283  37.9876163  49.6403543  19.0977163  36.6369473  48.9567793
  21.0353833  50.7031943  53.0398553  20.9923463  50.3324853  53.9213013
  21.1664843  51.6409513  53.1800373  24.7359863  52.2591533  48.6408273
  24.4951223  52.5266093  47.7538793  25.6762503  52.4297263  48.6959133
  26.9414283  38.7224223  52.3964783  26.8803173  39.3146053  53.1460193
  27.8814663  38.6150183  52.2515043  29.5788843  38.3794283  52.0357073
  30.1929253  38.6973573  51.3738153  30.1238403  37.8942873  52.6552933
  35.9964023  54.2785913  49.4418913  35.5022303  54.6754783  48.7246043
  35.3877313  53.6535123  49.8356193  20.1010103  37.0588543  52.1496133
  20.6493093  36.8776593  51.3862243  20.1665413  36.2682653  52.6852443
  20.8741863  53.6494193  50.1596333  20.2802183  53.5178893  50.8986373
  20.8665703  52.8132333  49.6938433  30.3196883  36.9426423  48.3626363
  29.4456723  37.2761533  48.1599293  30.2107633  36.4699603  49.1878233
  31.2268863  39.1497293  49.7468083  30.8982223  38.3349053  49.3669813
  32.1751163  39.1067103  49.6233773  33.6803473  54.9209333  46.7205653
  33.2206443  55.6725143  46.3463673  33.0515933  54.2015803  46.6620453
  20.5054093  51.0152573  49.1104373  19.7788153  50.3957863  49.0430323
  20.5663243  51.4093183  48.2402453  24.1099193  53.2297573  45.8953783
  24.6264213  52.6184933  45.3702043  24.7596573  53.7326353  46.3864793
  26.8494693  54.1206063  46.7222763  27.1372503  53.8660363  45.8455773
  27.3617913  53.5683423  47.3128333  28.0671703  37.8596263  47.3019273
  27.2843493  38.3341763  47.5816033  27.7734633  36.9551093  47.1932453
  32.6192773  38.5619363  45.3468363  33.0600863  38.5064463  44.4989963
  32.3500363  39.4777373  45.4178543  34.4831343  38.1934603  43.3577183
  34.4219743  37.2495823  43.2108203  35.2623373  38.3014693  43.9030643
  18.7884093  54.3326963  42.3201133  18.6206133  53.6997643  43.0183023
  17.9218603  54.5386363  41.9695323  19.4112113  38.1643743  39.8232993
  20.1691473  38.2772623  39.2497023  18.9489283  39.0012943  39.7776423
  25.9525923  40.2783013  42.8135303  25.1400433  39.9039903  42.4731183
  26.4567563  39.5228093  43.1156493  30.4550903  36.9425463  44.0518373
  31.0580273  37.5145673  44.5266893  29.7143893  37.5064903  43.8292273
  20.3946793  53.0260193  39.7651273  19.8694413  53.4068223  39.0613233
  20.3191373  53.6510963  40.4860983  21.7837263  38.6907793  38.3634963
  22.3130023  37.9037593  38.2342913  22.4165583  39.3698983  38.5970493
  23.9775103  38.4282933  41.4180353  23.3477843  37.7270243  41.5850483
  23.4380243  39.1887063  41.2013513  26.9167053  55.0422163  54.0890963
  27.8434363  54.8066433  54.1326923  26.9017483  55.8694163  53.6076993
  35.1512113  54.5847733  41.0865213  35.3264303  53.8985473  40.4426133
  34.4533683  55.1094783  40.6941883  24.1030663  37.7066913  53.8532843
  23.8214933  38.2100513  53.0893663  24.4850363  36.9088663  53.4874973
  22.9939763  54.9742573  38.6400523  23.7258583  54.6901853  38.0924413
  23.2533433  54.7355853  39.5299903  22.1554553  51.0907303  38.6446853
  21.5263433  51.5592403  39.1932683  22.2702383  50.2456523  39.0793043
  30.7046123  37.1220493  54.4313313  30.5911573  37.4415103  55.3264833
  31.5215863  37.5233003  54.1350593  33.4844613  54.2692023  53.9132003
  34.2769933  53.7741253  53.7057963  33.7777763  54.9482163  54.5207613
  29.6104273  45.1412963  24.7948053  29.5298323  44.2267573  24.5239763
  29.1968693  45.6380033  24.0887763  27.7422313  46.9191983  26.6757323
  26.9664413  46.4392423  26.9655893  28.3935243  46.2397633  26.5013483
  21.7588143  47.2311793  27.5533083  20.9273023  46.9760503  27.9529593
  22.3669123  47.3022563  28.2891003  31.7629743  51.3252173  25.4556453
  31.3011273  50.5539413  25.7843623  32.5755293  51.3518243  25.9608903
  21.7389403  51.2651883  27.7491103  22.0417443  50.3749623  27.5701323
  22.4832993  51.8222103  27.5213353  20.1680093  42.1913683  21.3375473
  19.2796793  42.5329653  21.2355353  20.4521283  41.9914003  20.4456303
  18.1313103  44.7919333  27.2215173  18.7029213  44.0241533  27.2218813
  18.1314643  45.0908093  26.3121783  27.9893053  53.6110183  25.0760443
  27.3704493  54.0667683  24.5054883  28.8444833  53.7661643  24.6750143
  27.1831303  49.5949173  26.6827483  27.1139583  48.6539113  26.5216613
  27.9451163  49.6850583  27.2550053  19.3737973  40.2003693  29.0084103
  19.1940813  39.3029443  29.2886863  18.9718053  40.7475563  29.6831053
  28.2136473  42.4019553  26.9096413  28.5901293  41.5291433  26.7970083
  28.1155983  42.7378253  26.0186853  22.3441483  40.7745183  22.3713853
  22.4508233  41.6748913  22.6782613  21.4333843  40.7263153  22.0808503
  31.9960593  39.8969993  23.8424753  32.8170213  39.4066563  23.8850233
  32.0294673  40.4867653  24.5956593  19.9924643  42.6964193  27.6166443
  20.6734753  42.9602563  28.2353843  19.6772693  41.8565063  27.9504453
  24.1849213  43.7431553  26.7039033  24.6927433  44.2412523  27.3444053
  24.7162453  42.9666753  26.5278393  22.4685313  38.3830113  30.9702453
  22.4703753  38.9002503  30.1648353  21.6389623  37.9060293  30.9472383
  28.8556403  48.4949423  22.4692353  28.2373673  48.9598873  21.9055073
  29.3679653  49.1876903  22.8861863  23.7188163  48.0225293  29.1475953
  23.3857543  48.6494213  29.7897023  23.8954843  48.5487173  28.3677623
  32.2322073  41.8370373  26.6152293  31.5277643  42.1255263  27.1955403
  32.5934233  42.6470483  26.2551853  22.1500643  40.0940073  28.9772903
  22.4917453  40.9382123  28.6826773  21.2116453  40.2423813  29.0938243
  22.9307263  49.9906093  30.9625133  23.5481263  50.6657173  30.6809583
  22.0700383  50.3994073  30.8712633  18.2239603  49.1805953  19.8431983
  17.8467583  49.6693053  19.1116883  18.4812673  49.8531233  20.4738513
  33.8484853  51.4545503  28.8779773  33.1648373  52.1244613  28.8696443
  34.3879143  51.6526153  28.1124633  35.3008993  41.2825163  27.0061503
  34.3533903  41.3164143  27.1376933  35.6258983  42.0964113  27.3910863
  25.8328533  37.5822343  25.3017493  26.1403513  37.0269233  24.5852993
  24.9029233  37.7166803  25.1190483  31.3843593  53.2989633  27.5924953
  31.3970753  52.8951923  26.7247213  30.8318813  54.0736923  27.4886383
  32.6789013  50.0205853  22.6815123  32.5685343  49.0780183  22.8064543
  32.6757263  50.3821493  23.5677883  30.7829033  48.2019473  28.9207563
  31.1997823  47.9879583  28.0861023  31.5068853  48.4592263  29.4916183
  28.2209293  45.6471173  22.0377613  27.2938573  45.5808553  22.2666083
  28.3734113  46.5851303  21.9232853  28.2078373  41.9188173  19.0344773
  27.2682043  42.0802133  19.1197233  28.5261633  42.6373853  18.4880763
  34.7291133  46.6006693  29.0123803  33.9009763  46.6699783  28.5373933
  35.3241613  47.1861003  28.5439633  32.2506583  47.2091473  22.5412863
  31.6319003  46.8711023  21.8939163  32.2331033  46.5651233  23.2492053
  31.6933143  43.3876013  29.9578673  31.2804323  44.2129723  30.2118663
  30.9609093  42.8021053  29.7655033  23.8265933  46.1735913  24.8197343
  23.4222933  45.4613163  24.3243243  23.9129053  45.8289153  25.7085383
  24.2947633  49.8603473  26.9836553  23.9975923  49.2548943  26.3044333
  25.2447453  49.8980783  26.8725913  22.5394553  42.9479123  28.5996383
  23.0909143  43.0574463  27.8249633  23.0538063  43.3216723  29.3151613
  32.3833243  53.4335343  30.6459653  31.9063803  54.2407533  30.4532263
  31.6995033  52.7813673  30.7985863  23.3866063  49.5985163  33.6344353
  22.4894593  49.8225133  33.8817753  23.4118933  49.7220103  32.6855753
  30.4271283  46.4478283  19.5485613  30.8664563  45.6100713  19.4023433
  31.1399703  47.0807683  19.6349753  22.2137283  46.4698483  32.2101723
  22.0745053  47.3421283  32.5789123  21.3318643  46.1271293  32.0649663
  28.5366663  51.3874353  23.5166853  28.9762573  52.1298683  23.1022243
  28.4753553  51.6300923  24.4405813  24.0117633  52.4120183  34.4186873
  23.9833063  52.8163133  33.5515303  23.8482603  51.4830543  34.2558473
  34.0088423  37.7021093  17.8626653  33.6961083  37.7947923  18.7625723
  34.7700893  38.2802123  17.8124083  20.5270563  45.0680893  22.3203993
  20.4068163  45.7942983  21.7085263  20.2171453  44.2983803  21.8431903
  35.9632453  53.1947283  35.7151043  36.4392173  53.6730173  36.3940123
  36.5839613  53.1264773  34.9896543  18.1655933  48.2396033  28.1272633
  18.2436353  48.3744803  27.1828353  18.7797613  47.5311923  28.3200753
  19.4103563  49.9396223  24.5378813  19.0031643  50.0810813  23.6832413
  20.3016573  49.6556383  24.3350023  35.3665703  50.3860133  32.8751053
  35.4928763  50.1472013  31.9568233  35.4087083  49.5544673  33.3473133
  29.2282443  54.0888133  31.4445863  29.7427113  53.9996143  32.2468293
  28.3851523  54.4347833  31.7373773  31.2036843  54.3743473  20.8729863
  31.0437983  54.0846413  21.7711693  31.0383553  53.5983603  20.3375093
  23.6825223  54.1542003  22.6501483  23.5067703  53.2377543  22.4369283
  22.8280963  54.5129293  22.8899283  30.9062973  51.8831033  19.4327863
  30.2128133  51.8808323  18.7730143  31.6485833  51.4590353  19.0022033
  30.4712903  53.5093743  23.5076353  30.9269853  52.7283123  23.8214973
  30.8105423  54.2200563  24.0517533  18.2215453  49.2810203  30.6667093
  18.3846493  48.8115563  29.8486463  18.6867903  48.7733763  31.3315933
  22.9934223  38.4115963  25.7027663  22.5502373  39.1925503  25.3712183
  23.5519213  38.7345853  26.4098603  27.2804033  41.2784483  31.3062983
  26.8183403  41.4867503  32.1182923  26.8782143  40.4643833  31.0033653
  32.2808543  42.4993433  32.4359643  31.4302133  42.1999183  32.7568713
  32.1210333  42.7435443  31.5243463  29.3758253  43.9995183  34.5358433
  29.7011663  43.1658933  34.1960663  30.1638583  44.5223703  34.6836763
  26.1093043  38.0326663  20.5833493  25.4847223  38.0286533  21.3086803
  26.0223163  37.1657623  20.1869463  25.0310123  38.9563293  27.5617263
  25.3282453  39.8626123  27.4809283  25.5795683  38.4682073  26.9476833
  22.7848443  43.5349533  23.4308913  22.5589363  43.3186703  24.3355533
  22.0040973  43.9677993  23.0854883  30.0146203  43.5412903  22.0299563
  29.4155093  44.2648703  21.8463183  30.5625813  43.4789683  21.2476013
  25.2247653  44.4335113  34.0969183  25.1291253  43.4929843  33.9469583
  26.0679633  44.6550183  33.7017253  28.6211073  42.1776443  24.0602843
  29.0140643  42.4948643  23.2471533  28.9827923  41.2988323  24.1747363
  20.3558193  40.8448783  32.2502963  19.9621583  41.6923993  32.4575743
  19.6676593  40.2075153  32.4411603  26.9303243  40.9283753  35.3199703
  26.2401563  40.7355953  35.9545793  27.6735543  41.2118393  35.8524003
  17.6575243  38.7677243  26.2833043  17.3688293  39.3380103  26.9958023
  18.4021003  38.2881693  26.6464273  17.8445473  42.7097363  17.4935763
  17.7620143  43.6528123  17.6350753  17.4928533  42.5672273  16.6148113
  29.2066213  44.7682193  28.1553623  28.4747333  45.2769003  28.5043723
  28.8090553  43.9512173  27.8542403  25.6443603  41.4436393  26.5606113
  25.6479663  41.0026343  25.7110653  26.5394723  41.7653723  26.6677933
  21.4945983  41.3262883  25.5200323  21.1546033  41.8038113  26.2767373
  20.7323303  40.8728003  25.1601423  25.7063753  42.4448473  19.5512873
  25.8276573  42.4034953  20.4998693  25.3212263  43.3072623  19.3959603
  29.6692123  40.2215873  27.5676563  29.6864863  40.6724523  28.4118413
  29.4207703  39.3221513  27.7810003  24.7185253  44.7549613  18.9496173
  24.1502153  44.3067863  18.3232083  25.4274253  45.1142393  18.4161323
  19.7954433  48.6561633  32.8262903  19.4109223  48.0155303  33.4245863
  20.1066623  49.3597753  33.3957633  25.9451573  45.5038173  28.3071523
  26.3121703  45.0296743  29.0532863  25.7556633  46.3779743  28.6479863
  18.8092063  40.2481863  24.4364993  18.5238983  39.8837533  25.2743613
  18.7470923  39.5162323  23.8228133  23.7350943  44.5446813  30.6255733
  23.4308013  45.4238793  30.8506093  24.6897403  44.6046603  30.6613173
  22.2632733  48.7507803  21.2222583  21.4894993  48.2105423  21.0621303
  22.9927363  48.2314413  20.8840343  33.0220713  47.7473163  27.0148973
  33.7419833  48.2428453  26.6245083  32.8202533  47.0691053  26.3702843
  28.4830653  39.1411123  21.1578363  27.6695263  38.6424293  21.0823673
  28.2892603  39.9809373  20.7414713  28.4039513  47.8182223  32.9017973
  28.3376823  46.8977893  32.6475563  27.7744653  47.9157663  33.6162613
  31.1979043  43.5130773  19.4540523  32.0858663  43.8248003  19.2791863
  31.1684133  42.6403023  19.0621103  22.3070133  48.4188183  24.8601393
  22.8248803  47.6156443  24.8058283  21.8554153  48.3567323  25.7018223
  27.1939633  49.6854463  20.1328693  27.5355333  50.4296693  19.6372013
  26.3652343  49.9985583  20.4953523  19.7914673  45.3849553  31.7727093
  19.4329613  46.0503403  32.3600433  19.4969233  44.5533103  32.1439713
  22.9927793  45.8433793  34.6566643  22.6927933  45.9890973  33.7594463
  23.7639033  45.2839083  34.5640033  28.3356243  50.6402793  32.6521773
  28.3500783  49.7083753  32.4340683  27.6281343  50.7262553  33.2911543
  33.4693313  44.8242613  18.9220383  33.3857033  45.2556833  18.0716823
  34.1887503  45.2840963  19.3547203  34.5467453  47.2810133  31.9990353
  33.8215643  47.8738913  31.8019743  35.0742913  47.2733673  31.2003723
  34.4980563  51.6784873  21.6502513  33.8556723  51.0240493  21.9246233
  34.1111223  52.0839963  20.8743183  30.0767043  49.0070303  25.4974203
  30.4290863  48.4098433  24.8375573  29.1929373  48.6814533  25.6682453
  26.1630323  49.7667993  22.9044613  26.8501453  50.3137203  23.2852203
  25.3762743  50.3108723  22.9394223  18.3022723  45.3840813  18.3961693
  19.1717573  45.6665613  18.6797613  17.8113043  46.1976683  18.2810503
  25.4657533  46.7714023  22.5169973  25.9220313  47.5819273  22.7430163
  25.1145743  46.4537163  23.3488463  27.7690143  52.2820363  29.7462273
  28.4132363  52.4879743  30.4235693  28.1319583  51.5208763  29.2933123
  21.3669313  37.1151673  22.9892493  21.2383943  37.1069573  23.9377413
  20.5431333  37.4534763  22.6383503  29.0422223  50.2852713  28.4639723
  29.6844453  49.5845873  28.5771893  29.5671573  51.0651153  28.2836613
  32.8877943  50.5701333  18.1878863  32.6615523  49.8531773  18.7803503
  32.4974143  50.3213773  17.3500613  30.8159843  51.0847613  31.6675783
  31.1516083  51.6714303  32.3453703  29.8960183  50.9540323  31.8973573
  18.6693973  54.5968193  18.9623323  19.0291613  55.1957533  18.3080593
  18.5286313  55.1428083  19.7358353  18.3663243  38.8742793  32.4499193
  17.6521763  39.0739713  33.0551803  18.7858283  38.0982363  32.8213993
  32.4694193  48.4873273  19.8493023  32.1815893  48.9485963  20.6370903
  33.2646363  48.0271043  20.1177243  18.6535833  52.8623053  33.4365723
  18.7626953  51.9217793  33.2961113  18.0016393  53.1277803  32.7879453
  26.6448423  51.1338943  34.8363843  26.3245293  50.4148183  35.3809533
  25.9706783  51.8094013  34.9099903  24.6862593  51.9799393  19.7796993
  24.6772693  52.7129083  19.1641503  23.7660953  51.7330973  19.8723953
  20.2869233  47.2014283  20.5243753  19.6797183  47.9413183  20.5339053
  20.7618583  47.2913643  19.6981953  29.8602023  41.3665103  30.2000643
  30.2282843  40.5460313  30.5280213  29.0000223  41.4266993  30.6156293
  33.2264053  40.3222043  21.0088203  32.5977213  40.4267713  20.2946433
  32.7315973  40.5418823  21.7982083  27.6722193  52.0427633  18.4422183
  27.7734173  51.8391623  17.5124163  26.7723933  51.7885913  18.6469963
  25.1948083  42.6007993  22.4246083  24.4864233  43.0694333  22.8659693
  25.4792563  41.9430003  23.0591273  26.8204013  44.0204693  30.4238613
  27.3189263  44.4950513  31.0890463  26.9626963  43.0968213  30.6308643
  29.2263513  39.3258653  23.8641873  29.1031293  39.3444783  22.9151383
  30.1748073  39.3737593  23.9840273  26.3140303  54.5613953  23.1369853
  26.5681803  54.5235343  22.2149223  25.3652783  54.4347283  23.1298103
  23.3983103  40.9093073  19.7996793  24.2473633  41.3463223  19.7336983
  23.0314373  41.2213333  20.6268853  32.3192883  45.4805833  24.7128363
  31.3783023  45.4956063  24.8876053  32.6336953  44.6941793  25.1588663
  22.2974523  47.1625433  18.2732323  23.0637793  47.0506793  18.8357753
  22.3749213  46.4663403  17.6209093  20.9921283  44.5950503  18.9565213
  21.0724873  43.6478013  19.0682613  21.8841033  44.9257383  19.0625873
  34.3218463  52.6514683  26.3882623  34.4465883  53.4745853  26.8606433
  35.1884023  52.4405413  26.0406773  21.7935993  54.7445893  26.0599753
  22.5298473  54.1961353  26.3308323  22.1776913  55.6101903  25.9205743
  18.6781473  50.8119463  21.9341263  17.7521253  51.0540603  21.9246673
  19.1437903  51.6393723  21.8126013  20.7994273  53.9291963  35.2485333
  21.6007003  54.2504013  35.6620733  20.2846093  53.5687543  35.9705243
  24.9038303  53.9176203  17.8825323  25.6966913  54.2065033  17.4307113
  24.3842653  53.4868373  17.2037803  29.6358903  50.0371833  35.1960743
  29.0297063  50.0603433  34.4556493  29.3313013  49.3054873  35.7327993
  31.0659273  53.7652123  33.8070153  32.0181023  53.6810143  33.7570393
  30.9187493  54.4293833  34.4803943  33.9568473  53.1446333  19.3062063
  33.6709983  52.7311473  18.4916243  33.7588023  54.0734043  19.1862583
  18.5192083  46.4165423  34.1921383  19.0231103  45.8372703  34.7637613
  17.7799503  46.7005653  34.7297753  25.4215703  49.1379613  17.7467673
  25.3166343  48.5231963  18.4729053  25.2539923  48.6145503  16.9630683
  25.5730023  47.8236413  33.7256903  24.8075693  48.3921413  33.6411573
  25.7545983  47.5312623  32.8325133  28.6618433  48.1999643  18.3509663
  28.1128533  48.6468943  18.9952403  29.2837693  47.6948893  18.8747333
  32.7153373  49.5541743  34.2831923  33.4562843  49.8917503  33.7799383
  31.9526053  49.7233803  33.7301693  20.5515163  44.5595013  35.0871453
  20.5920503  44.2608883  35.9956683  21.4060663  44.9602623  34.9278973
  24.3293553  47.1590563  20.2474963  24.7509973  46.9930433  21.0906353
  24.4544393  46.3490793  19.7530103  22.4920973  43.1387113  33.0545943
  21.9617433  42.6478063  32.4269283  23.1609043  43.5671313  32.5203873
  26.8421193  46.1828173  17.4952063  27.3626853  45.4677193  17.1293213
  27.4889593  46.8214043  17.7952573  31.3899033  47.6056573  32.8187133
  31.8040053  47.7601653  33.6677553  30.4550033  47.7311793  32.9812913
  31.8621203  44.9452733  34.8226283  32.4441973  44.1905053  34.7346763
  32.0382973  45.4760173  34.0457763  22.9793273  40.1049483  33.1343233
  22.8850143  39.4870233  32.4094103  22.3990663  40.8315773  32.9073143
  25.7454713  38.6622723  30.1670623  25.2972013  38.6846983  29.3216173
  25.1119913  38.2641743  30.7640923  26.1514263  47.5577053  30.7883063
  26.5702373  48.4009783  30.6159303  25.2322893  47.6949093  30.5589843
  28.4878163  45.2893233  32.1720903  28.6074373  44.6934373  32.9115743
  29.3472163  45.3262923  31.7522203  30.8266063  45.8430423  30.7483413
  30.3001283  46.3673043  30.1448553  31.1697403  46.4757813  31.3793143
  23.2252453  43.2323793  17.1933123  23.0241513  42.3691153  17.5546463
  23.0544503  43.1457153  16.2554723  24.0021683  53.8630063  31.9040793
  23.4642773  54.5876123  31.5849493  24.2555643  53.3860403  31.1138133
  25.2546933  41.8314583  33.4296723  25.8446623  41.5230433  34.1174543
  24.4367173  41.3594333  33.5856623  30.0740363  41.4480393  33.6629743
  29.3855883  40.7861933  33.5979733  30.7946383  41.0018663  34.1078203
  30.7040763  38.0432023  19.7220003  30.9843053  37.1999923  20.0779423
  29.9306493  38.2755133  20.2358753  22.0235253  40.3324413  17.1811003
  22.3261153  40.3391843  16.2730153  22.7629843  39.9822273  17.6778663
  26.8583893  55.0981273  32.1627443  26.7842593  56.0016413  32.4699813
  25.9562733  54.7793173  32.1349513  25.2420183  39.2759033  18.1667203
  24.8942183  38.5983023  17.5869653  25.4432953  38.8148543  18.9810593
  27.4069223  54.2639783  19.7853803  28.3020013  54.6024753  19.8072563
  27.4386853  53.5419193  19.1578083  21.0465383  49.6366833  18.0140803
  21.4840253  50.1796503  18.6698383  21.5313113  48.8113783  18.0237143
  18.2611183  52.4255863  25.4661063  18.5914193  51.5576923  25.2339703
  18.6902183  52.6314383  26.2966023  22.8573103  50.7564873  23.1263033
  22.5568643  50.6329843  24.0266943  22.7510593  49.8973463  22.7178763
  18.7501393  53.2926453  28.2042693  18.3132383  53.4727253  29.0366843
  19.3179073  54.0501073  28.0624413  34.3863573  52.7943453  32.4920003
  33.7865563  52.8536013  31.7483923  34.5157473  51.8548433  32.6216853
  35.6265023  50.5361273  17.8289713  34.7957983  50.6037923  18.2996943
  35.8036853  51.4265393  17.5256573  35.0821483  47.2808753  20.3323913
  35.8440393  47.8505403  20.4383603  35.0975853  46.7135953  21.1032223
  18.5825823  45.8046683  24.5631573  17.9274663  45.5358323  23.9191273
  19.4203773  45.6951163  24.1133553  36.0881453  48.1358853  25.1765843
  36.4590283  47.3526173  24.7701813  36.7283383  48.8247953  24.9983143
  33.0715213  49.5195433  30.5896163  32.2575053  49.9492593  30.8521953
  33.4789413  50.1313843  29.9765213  35.1340653  47.5743123  17.4896433
  35.4089493  48.4822003  17.3615653  34.9451393  47.5105653  18.4258423
  31.5316263  40.5987973  18.7850063  31.9501143  40.4118953  17.9446723
  31.2252323  39.7467023  19.0952993  35.0305993  45.5112113  22.4825863
  34.6549593  44.7440043  22.0507153  34.3009113  45.8934813  22.9700793
  19.6201753  46.1899253  29.1034913  19.9874793  46.1026653  29.9830933
  19.0512573  45.4265803  29.0041773  34.4205613  44.6583633  32.1165383
  34.1891703  44.4296383  31.2163333  34.6810163  45.5783183  32.0710273
  19.1717753  43.1008343  33.0093333  18.2773803  43.0675103  33.3487043
  19.7115303  43.2995133  33.7744583  17.7963903  43.0145613  20.5056903
  16.8927983  43.2775813  20.3308563  18.2804523  43.2856783  19.7256863
  34.3056953  43.7369603  25.7833103  34.8294433  43.2432253  25.1523273
  34.8916373  43.8719963  26.5280673  34.4846673  43.8209473  29.3052653
  33.5349383  43.7873013  29.4197643  34.6659683  44.7309583  29.0702423
  20.3391113  42.0711153  18.4151283  21.0482813  41.6494373  17.9298563
  19.6231053  42.1386383  17.7834633  19.9865273  38.1250483  17.4553933
  20.7093403  38.6659423  17.7735153  20.2589793  37.8513903  16.5795473
  33.7956923  42.9942953  21.7225513  34.2916043  42.7613823  22.5074393
  33.5972993  42.1554793  21.3063153  19.6757463  37.3756673  27.3576553
  20.3233653  36.8254053  26.9171713  20.0959303  37.6299823  28.1792363
  35.2244083  41.6303903  24.2563193  35.1143363  41.4759943  25.1945463
  35.9851673  41.1024843  24.0138603  36.1134353  39.4611823  17.4969333
  37.0383663  39.3293003  17.2887623  36.0910143  39.5404643  18.4505783
  36.1872843  40.2322483  20.1226043  35.3924343  40.1667603  20.6518953
  36.3916123  41.1673123  20.1111393  33.1291263  54.2714033  24.1164433
  33.7250333  53.9498603  23.4398853  33.3869413  53.7985853  24.9077703
  19.4289463  37.5312343  30.1001873  19.0804283  37.9876163  30.8660053
  19.0977163  36.6369473  30.1824303  21.0353833  50.7031943  34.2655063
  20.9923463  50.3324853  35.1469523  21.1664843  51.6409513  34.4056883
  24.7359863  52.2591533  29.8664783  24.4951223  52.5266093  28.9795303
  25.6762503  52.4297263  29.9215643  26.9414283  38.7224223  33.6221293
  26.8803173  39.3146053  34.3716703  27.8814663  38.6150183  33.4771553
  29.5788843  38.3794283  33.2613583  30.1929253  38.6973573  32.5994663
  30.1238403  37.8942873  33.8809443  35.9964023  54.2785913  30.6675423
  35.5022303  54.6754783  29.9502553  35.3877313  53.6535123  31.0612703
  20.1010103  37.0588543  33.3752643  20.6493093  36.8776593  32.6118753
  20.1665413  36.2682653  33.9108953  20.8741863  53.6494193  31.3852843
  20.2802183  53.5178893  32.1242883  20.8665703  52.8132333  30.9194943
  30.3196883  36.9426423  29.5882873  29.4456723  37.2761533  29.3855803
  30.2107633  36.4699603  30.4134743  31.2268863  39.1497293  30.9724593
  30.8982223  38.3349053  30.5926323  32.1751163  39.1067103  30.8490283
  33.6803473  54.9209333  27.9462163  33.2206443  55.6725143  27.5720183
  33.0515933  54.2015803  27.8876963  20.5054093  51.0152573  30.3360883
  19.7788153  50.3957863  30.2686833  20.5663243  51.4093183  29.4658963
  24.1099193  53.2297573  27.1210293  24.6264213  52.6184933  26.5958553
  24.7596573  53.7326353  27.6121303  26.8494693  54.1206063  27.9479273
  27.1372503  53.8660363  27.0712283  27.3617913  53.5683423  28.5384843
  28.0671703  37.8596263  28.5275783  27.2843493  38.3341763  28.8072543
  27.7734633  36.9551093  28.4188963  32.6192773  38.5619363  26.5724873
  33.0600863  38.5064463  25.7246473  32.3500363  39.4777373  26.6435053
  34.4831343  38.1934603  24.5833693  34.4219743  37.2495823  24.4364713
  35.2623373  38.3014693  25.1287153  18.7884093  54.3326963  23.5457643
  18.6206133  53.6997643  24.2439533  17.9218603  54.5386363  23.1951833
  19.4112113  38.1643743  21.0489503  20.1691473  38.2772623  20.4753533
  18.9489283  39.0012943  21.0032933  25.9525923  40.2783013  24.0391813
  25.1400433  39.9039903  23.6987693  26.4567563  39.5228093  24.3413003
  30.4550903  36.9425463  25.2774883  31.0580273  37.5145673  25.7523403
  29.7143893  37.5064903  25.0548783  33.5985503  37.3447023  20.5515163
  33.7936133  38.2430473  20.8182593  32.8115373  37.1134103  21.0448113
  20.3946793  53.0260193  20.9907783  19.8694413  53.4068223  20.2869743
  20.3191373  53.6510963  21.7117493  21.7837263  38.6907793  19.5891473
  22.3130023  37.9037593  19.4599423  22.4165583  39.3698983  19.8227003
  23.9775103  38.4282933  22.6436863  23.3477843  37.7270243  22.8106993
  23.4380243  39.1887063  22.4270023  26.9167053  55.0422163  35.3147473
  27.8434363  54.8066433  35.3583433  26.9017483  55.8694163  34.8333503
  35.1512113  54.5847733  22.3121723  35.3264303  53.8985473  21.6682643
  34.4533683  55.1094783  21.9198393  24.1030663  37.7066913  35.0789353
  23.8214933  38.2100513  34.3150173  24.4850363  36.9088663  34.7131483
  22.9939763  54.9742573  19.8657033  23.7258583  54.6901853  19.3180923
  23.2533433  54.7355853  20.7556413  22.1554553  51.0907303  19.8703363
  21.5263433  51.5592403  20.4189193  22.2702383  50.2456523  20.3049553
  33.4844613  54.2692023  35.1388513  34.2769933  53.7741253  34.9314473
  33.7777763  54.9482163  35.7464123  29.6104273  45.1412963   6.0204563
  29.5298323  44.2267573   5.7496273  29.1968693  45.6380033   5.3144273
  27.7422313  46.9191983   7.9013833  26.9664413  46.4392423   8.1912403
  28.3935243  46.2397633   7.7269993  21.7588143  47.2311793   8.7789593
  20.9273023  46.9760503   9.1786103  22.3669123  47.3022563   9.5147513
  31.7629743  51.3252173   6.6812963  31.3011273  50.5539413   7.0100133
  32.5755293  51.3518243   7.1865413  21.7389403  51.2651883   8.9747613
  22.0417443  50.3749623   8.7957833  22.4832993  51.8222103   8.7469863
  18.1313103  44.7919333   8.4471683  18.7029213  44.0241533   8.4475323
  18.1314643  45.0908093   7.5378293  27.9893053  53.6110183   6.3016953
  27.3704493  54.0667683   5.7311393  28.8444833  53.7661643   5.9006653
  27.1831303  49.5949173   7.9083993  27.1139583  48.6539113   7.7473123
  27.9451163  49.6850583   8.4806563  19.3737973  40.2003693  10.2340613
  19.1940813  39.3029443  10.5143373  18.9718053  40.7475563  10.9087563
  28.2136473  42.4019553   8.1352923  28.5901293  41.5291433   8.0226593
  28.1155983  42.7378253   7.2443363  22.3441483  40.7745183   3.5970363
  22.4508233  41.6748913   3.9039123  21.4333843  40.7263153   3.3065013
  31.9960593  39.8969993   5.0681263  32.8170213  39.4066563   5.1106743
  32.0294673  40.4867653   5.8213103  19.9924643  42.6964193   8.8422953
  20.6734753  42.9602563   9.4610353  19.6772693  41.8565063   9.1760963
  24.1849213  43.7431553   7.9295543  24.6927433  44.2412523   8.5700563
  24.7162453  42.9666753   7.7534903  36.2860143  41.9136743  11.6324893
  35.5812313  42.3018453  11.1140003  36.5518063  42.6087033  12.2345823
  22.4685313  38.3830113  12.1958963  22.4703753  38.9002503  11.3904863
  21.6389623  37.9060293  12.1728893  28.8556403  48.4949423   3.6948863
  28.2373673  48.9598873   3.1311583  29.3679653  49.1876903   4.1118373
  23.7188163  48.0225293  10.3732463  23.3857543  48.6494213  11.0153533
  23.8954843  48.5487173   9.5934133  32.2322073  41.8370373   7.8408803
  31.5277643  42.1255263   8.4211913  32.5934233  42.6470483   7.4808363
  22.1500643  40.0940073  10.2029413  22.4917453  40.9382123   9.9083283
  21.2116453  40.2423813  10.3194753  22.9307263  49.9906093  12.1881643
  23.5481263  50.6657173  11.9066093  22.0700383  50.3994073  12.0969143
  33.8484853  51.4545503  10.1036283  33.1648373  52.1244613  10.0952953
  34.3879143  51.6526153   9.3381143  35.3008993  41.2825163   8.2318013
  34.3533903  41.3164143   8.3633443  35.6258983  42.0964113   8.6167373
  25.8328533  37.5822343   6.5274003  26.1403513  37.0269233   5.8109503
  24.9029233  37.7166803   6.3446993  31.3843593  53.2989633   8.8181463
  31.3970753  52.8951923   7.9503723  30.8318813  54.0736923   8.7142893
  32.6789013  50.0205853   3.9071633  32.5685343  49.0780183   4.0321053
  32.6757263  50.3821493   4.7934393  30.7829033  48.2019473  10.1464073
  31.1997823  47.9879583   9.3117533  31.5068853  48.4592263  10.7172693
  28.2209293  45.6471173   3.2634123  27.2938573  45.5808553   3.4922593
  28.3734113  46.5851303   3.1489363  34.7291133  46.6006693  10.2380313
  33.9009763  46.6699783   9.7630443  35.3241613  47.1861003   9.7696143
  32.2506583  47.2091473   3.7669373  31.6319003  46.8711023   3.1195673
  32.2331033  46.5651233   4.4748563  31.6933143  43.3876013  11.1835183
  31.2804323  44.2129723  11.4375173  30.9609093  42.8021053  10.9911543
  23.8265933  46.1735913   6.0453853  23.4222933  45.4613163   5.5499753
  23.9129053  45.8289153   6.9341893  24.2947633  49.8603473   8.2093063
  23.9975923  49.2548943   7.5300843  25.2447453  49.8980783   8.0982423
  22.5394553  42.9479123   9.8252893  23.0909143  43.0574463   9.0506143
  23.0538063  43.3216723  10.5408123  32.3833243  53.4335343  11.8716163
  31.9063803  54.2407533  11.6788773  31.6995033  52.7813673  12.0242373
  23.3866063  49.5985163  14.8600863  22.4894593  49.8225133  15.1074263
  23.4118933  49.7220103  13.9112263  22.2137283  46.4698483  13.4358233
  22.0745053  47.3421283  13.8045633  21.3318643  46.1271293  13.2906173
  28.5366663  51.3874353   4.7423363  28.9762573  52.1298683   4.3278753
  28.4753553  51.6300923   5.6662323  24.0117633  52.4120183  15.6443383
  23.9833063  52.8163133  14.7771813  23.8482603  51.4830543  15.4814983
  20.5270563  45.0680893   3.5460503  20.4068163  45.7942983   2.9341773
  20.2171453  44.2983803   3.0688413  35.9632453  53.1947283  16.9407553
  36.4392173  53.6730173  17.6196633  36.5839613  53.1264773  16.2153053
  18.1655933  48.2396033   9.3529143  18.2436353  48.3744803   8.4084863
  18.7797613  47.5311923   9.5457263  19.4103563  49.9396223   5.7635323
  19.0031643  50.0810813   4.9088923  20.3016573  49.6556383   5.5606533
  35.3665703  50.3860133  14.1007563  35.4928763  50.1472013  13.1824743
  35.4087083  49.5544673  14.5729643  29.2282443  54.0888133  12.6702373
  29.7427113  53.9996143  13.4724803  28.3851523  54.4347833  12.9630283
  23.6825223  54.1542003   3.8757993  23.5067703  53.2377543   3.6625793
  22.8280963  54.5129293   4.1155793  30.4712903  53.5093743   4.7332863
  30.9269853  52.7283123   5.0471483  30.8105423  54.2200563   5.2774043
  35.2189713  42.4392593  15.0657303  34.6033983  42.9472263  14.5372763
  34.8986133  41.5390923  15.0083243  18.2215453  49.2810203  11.8923603
  18.3846493  48.8115563  11.0742973  18.6867903  48.7733763  12.5572443
  22.9934223  38.4115963   6.9284173  22.5502373  39.1925503   6.5968693
  23.5519213  38.7345853   7.6355113  27.2804033  41.2784483  12.5319493
  26.8183403  41.4867503  13.3439433  26.8782143  40.4643833  12.2290163
  32.2808543  42.4993433  13.6616153  31.4302133  42.1999183  13.9825223
  32.1210333  42.7435443  12.7499973  29.3758253  43.9995183  15.7614943
  29.7011663  43.1658933  15.4217173  30.1638583  44.5223703  15.9093273
  25.0310123  38.9563293   8.7873773  25.3282453  39.8626123   8.7065793
  25.5795683  38.4682073   8.1733343  22.7848443  43.5349533   4.6565423
  22.5589363  43.3186703   5.5612043  22.0040973  43.9677993   4.3111393
  30.0146203  43.5412903   3.2556073  29.4155093  44.2648703   3.0719693
  30.5625813  43.4789683   2.4732523  25.2247653  44.4335113  15.3225693
  25.1291253  43.4929843  15.1726093  26.0679633  44.6550183  14.9273763
  28.6211073  42.1776443   5.2859353  29.0140643  42.4948643   4.4728043
  28.9827923  41.2988323   5.4003873  20.3558193  40.8448783  13.4759473
  19.9621583  41.6923993  13.6832253  19.6676593  40.2075153  13.6668113
  26.9303243  40.9283753  16.5456213  26.2401563  40.7355953  17.1802303
  27.6735543  41.2118393  17.0780513  17.6575243  38.7677243   7.5089553
  17.3688293  39.3380103   8.2214533  18.4021003  38.2881693   7.8720783
  29.2066213  44.7682193   9.3810133  28.4747333  45.2769003   9.7300233
  28.8090553  43.9512173   9.0798913  25.6443603  41.4436393   7.7862623
  25.6479663  41.0026343   6.9367163  26.5394723  41.7653723   7.8934443
  21.4945983  41.3262883   6.7456833  21.1546033  41.8038113   7.5023883
  20.7323303  40.8728003   6.3857933  29.6692123  40.2215873   8.7933073
  29.6864863  40.6724523   9.6374923  29.4207703  39.3221513   9.0066513
  33.0962873  37.6348053  14.6319453  33.4208643  36.9037713  15.1577433
  33.1319383  37.3161693  13.7300443  19.7954433  48.6561633  14.0519413
  19.4109223  48.0155303  14.6502373  20.1066623  49.3597753  14.6214143
  25.9451573  45.5038173   9.5328033  26.3121703  45.0296743  10.2789373
  25.7556633  46.3779743   9.8736373  18.8092063  40.2481863   5.6621503
  18.5238983  39.8837533   6.5000123  18.7470923  39.5162323   5.0484643
  23.7350943  44.5446813  11.8512243  23.4308013  45.4238793  12.0762603
  24.6897403  44.6046603  11.8869683  22.2632733  48.7507803   2.4479093
  21.4894993  48.2105423   2.2877813  22.9927363  48.2314413   2.1096853
  33.0220713  47.7473163   8.2405483  33.7419833  48.2428453   7.8501593
  32.8202533  47.0691053   7.5959353  28.4830653  39.1411123   2.3834873
  27.6695263  38.6424293   2.3080183  28.2892603  39.9809373   1.9671223
  28.4039513  47.8182223  14.1274483  28.3376823  46.8977893  13.8732073
  27.7744653  47.9157663  14.8419123  22.3070133  48.4188183   6.0857903
  22.8248803  47.6156443   6.0314793  21.8554153  48.3567323   6.9274733
  19.7914673  45.3849553  12.9983603  19.4329613  46.0503403  13.5856943
  19.4969233  44.5533103  13.3696223  22.9927793  45.8433793  15.8823153
  22.6927933  45.9890973  14.9850973  23.7639033  45.2839083  15.7896543
  28.3356243  50.6402793  13.8778283  28.3500783  49.7083753  13.6597193
  27.6281343  50.7262553  14.5168053  34.5467453  47.2810133  13.2246863
  33.8215643  47.8738913  13.0276253  35.0742913  47.2733673  12.4260233
  34.4980563  51.6784873   2.8759023  33.8556723  51.0240493   3.1502743
  34.1111223  52.0839963   2.0999693  30.0767043  49.0070303   6.7230713
  30.4290863  48.4098433   6.0632083  29.1929373  48.6814533   6.8938963
  26.1630323  49.7667993   4.1301123  26.8501453  50.3137203   4.5108713
  25.3762743  50.3108723   4.1650733  25.4657533  46.7714023   3.7426483
  25.9220313  47.5819273   3.9686673  25.1145743  46.4537163   4.5744973
  27.7690143  52.2820363  10.9718783  28.4132363  52.4879743  11.6492203
  28.1319583  51.5208763  10.5189633  21.3669313  37.1151673   4.2149003
  21.2383943  37.1069573   5.1633923  20.5431333  37.4534763   3.8640013
  29.0422223  50.2852713   9.6896233  29.6844453  49.5845873   9.8028403
  29.5671573  51.0651153   9.5093123  30.8159843  51.0847613  12.8932293
  31.1516083  51.6714303  13.5710213  29.8960183  50.9540323  13.1230083
  18.3663243  38.8742793  13.6755703  17.6521763  39.0739713  14.2808313
  18.7858283  38.0982363  14.0470503  18.6535833  52.8623053  14.6622233
  18.7626953  51.9217793  14.5217623  18.0016393  53.1277803  14.0135963
  26.6448423  51.1338943  16.0620353  26.3245293  50.4148183  16.6066043
  25.9706783  51.8094013  16.1356413  29.8602023  41.3665103  11.4257153
  30.2282843  40.5460313  11.7536723  29.0000223  41.4266993  11.8412803
  25.1948083  42.6007993   3.6502593  24.4864233  43.0694333   4.0916203
  25.4792563  41.9430003   4.2847783  26.8204013  44.0204693  11.6495123
  27.3189263  44.4950513  12.3146973  26.9626963  43.0968213  11.8565153
  29.2263513  39.3258653   5.0898383  29.1031293  39.3444783   4.1407893
  30.1748073  39.3737593   5.2096783  26.3140303  54.5613953   4.3626363
  26.5681803  54.5235343   3.4405733  25.3652783  54.4347283   4.3554613
  34.0270873  40.2372653  12.4923513  33.5244473  40.9778053  12.8317323
  34.8427533  40.6256653  12.1760303  32.3192883  45.4805833   5.9384873
  31.3783023  45.4956063   6.1132563  32.6336953  44.6941793   6.3845173
  34.3218463  52.6514683   7.6139133  34.4465883  53.4745853   8.0862943
  35.1884023  52.4405413   7.2663283  21.7935993  54.7445893   7.2856263
  22.5298473  54.1961353   7.5564833  22.1776913  55.6101903   7.1462253
  18.6781473  50.8119463   3.1597773  17.7521253  51.0540603   3.1503183
  19.1437903  51.6393723   3.0382523  20.7994273  53.9291963  16.4741843
  21.6007003  54.2504013  16.8877243  20.2846093  53.5687543  17.1961753
  29.6358903  50.0371833  16.4217253  29.0297063  50.0603433  15.6813003
  29.3313013  49.3054873  16.9584503  31.0659273  53.7652123  15.0326663
  32.0181023  53.6810143  14.9826903  30.9187493  54.4293833  15.7060453
  18.5192083  46.4165423  15.4177893  19.0231103  45.8372703  15.9894123
  17.7799503  46.7005653  15.9554263  25.5730023  47.8236413  14.9513413
  24.8075693  48.3921413  14.8668083  25.7545983  47.5312623  14.0581643
  32.7153373  49.5541743  15.5088433  33.4562843  49.8917503  15.0055893
  31.9526053  49.7233803  14.9558203  20.5515163  44.5595013  16.3127963
  20.5920503  44.2608883  17.2213193  21.4060663  44.9602623  16.1535483
  22.4920973  43.1387113  14.2802453  21.9617433  42.6478063  13.6525793
  23.1609043  43.5671313  13.7460383  31.3899033  47.6056573  14.0443643
  31.8040053  47.7601653  14.8934063  30.4550033  47.7311793  14.2069423
  31.8621203  44.9452733  16.0482793  32.4441973  44.1905053  15.9603273
  32.0382973  45.4760173  15.2714273  22.9793273  40.1049483  14.3599743
  22.8850143  39.4870233  13.6350613  22.3990663  40.8315773  14.1329653
  25.7454713  38.6622723  11.3927133  25.2972013  38.6846983  10.5472683
  25.1119913  38.2641743  11.9897433  26.1514263  47.5577053  12.0139573
  26.5702373  48.4009783  11.8415813  25.2322893  47.6949093  11.7846353
  28.4878163  45.2893233  13.3977413  28.6074373  44.6934373  14.1372253
  29.3472163  45.3262923  12.9778713  30.8266063  45.8430423  11.9739923
  30.3001283  46.3673043  11.3705063  31.1697403  46.4757813  12.6049653
  24.0021683  53.8630063  13.1297303  23.4642773  54.5876123  12.8106003
  24.2555643  53.3860403  12.3394643  25.2546933  41.8314583  14.6553233
  25.8446623  41.5230433  15.3431053  24.4367173  41.3594333  14.8113133
  30.0740363  41.4480393  14.8886253  29.3855883  40.7861933  14.8236243
  30.7946383  41.0018663  15.3334713  26.8583893  55.0981273  13.3883953
  26.7842593  56.0016413  13.6956323  25.9562733  54.7793173  13.3606023
  18.2611183  52.4255863   6.6917573  18.5914193  51.5576923   6.4596213
  18.6902183  52.6314383   7.5222533  22.8573103  50.7564873   4.3519543
  22.5568643  50.6329843   5.2523453  22.7510593  49.8973463   3.9435273
  18.7501393  53.2926453   9.4299203  18.3132383  53.4727253  10.2623353
  19.3179073  54.0501073   9.2880923  34.3863573  52.7943453  13.7176513
  33.7865563  52.8536013  12.9740433  34.5157473  51.8548433  13.8473363
  18.5825823  45.8046683   5.7888083  17.9274663  45.5358323   5.1447783
  19.4203773  45.6951163   5.3390063  36.0881453  48.1358853   6.4022353
  36.4590283  47.3526173   5.9958323  36.7283383  48.8247953   6.2239653
  33.0715213  49.5195433  11.8152673  32.2575053  49.9492593  12.0778463
  33.4789413  50.1313843  11.2021723  35.0305993  45.5112113   3.7082373
  34.6549593  44.7440043   3.2763663  34.3009113  45.8934813   4.1957303
  19.6201753  46.1899253  10.3291423  19.9874793  46.1026653  11.2087443
  19.0512573  45.4265803  10.2298283  34.4205613  44.6583633  13.3421893
  34.1891703  44.4296383  12.4419843  34.6810163  45.5783183  13.2966783
  19.1717753  43.1008343  14.2349843  18.2773803  43.0675103  14.5743553
  19.7115303  43.2995133  15.0001093  32.8593683  39.8840063  16.1201593
  33.7363863  39.8923463  16.5035593  32.8714523  39.1470903  15.5093943
  34.3056953  43.7369603   7.0089613  34.8294433  43.2432253   6.3779783
  34.8916373  43.8719963   7.7537183  34.4846673  43.8209473  10.5309163
  33.5349383  43.7873013  10.6454153  34.6659683  44.7309583  10.2958933
  33.7956923  42.9942953   2.9482023  34.2916043  42.7613823   3.7330903
  33.5972993  42.1554793   2.5319663  19.6757463  37.3756673   8.5833063
  20.3233653  36.8254053   8.1428223  20.0959303  37.6299823   9.4048873
  35.2244083  41.6303903   5.4819703  35.1143363  41.4759943   6.4201973
  35.9851673  41.1024843   5.2395113  33.5709803  37.5698033  11.9402703
  34.2082023  38.1832173  12.3061893  33.7184693  37.6058693  10.9951933
  33.1291263  54.2714033   5.3420943  33.7250333  53.9498603   4.6655363
  33.3869413  53.7985853   6.1334213  19.4289463  37.5312343  11.3258383
  19.0804283  37.9876163  12.0916563  19.0977163  36.6369473  11.4080813
  21.0353833  50.7031943  15.4911573  20.9923463  50.3324853  16.3726033
  21.1664843  51.6409513  15.6313393  24.7359863  52.2591533  11.0921293
  24.4951223  52.5266093  10.2051813  25.6762503  52.4297263  11.1472153
  26.9414283  38.7224223  14.8477803  26.8803173  39.3146053  15.5973213
  27.8814663  38.6150183  14.7028063  29.5788843  38.3794283  14.4870093
  30.1929253  38.6973573  13.8251173  30.1238403  37.8942873  15.1065953
  35.9964023  54.2785913  11.8931933  35.5022303  54.6754783  11.1759063
  35.3877313  53.6535123  12.2869213  20.1010103  37.0588543  14.6009153
  20.6493093  36.8776593  13.8375263  20.1665413  36.2682653  15.1365463
  20.8741863  53.6494193  12.6109353  20.2802183  53.5178893  13.3499393
  20.8665703  52.8132333  12.1451453  30.3196883  36.9426423  10.8139383
  29.4456723  37.2761533  10.6112313  30.2107633  36.4699603  11.6391253
  31.2268863  39.1497293  12.1981103  30.8982223  38.3349053  11.8182833
  32.1751163  39.1067103  12.0746793  33.6803473  54.9209333   9.1718673
  33.2206443  55.6725143   8.7976693  33.0515933  54.2015803   9.1133473
  20.5054093  51.0152573  11.5617393  19.7788153  50.3957863  11.4943343
  20.5663243  51.4093183  10.6915473  24.1099193  53.2297573   8.3466803
  24.6264213  52.6184933   7.8215063  24.7596573  53.7326353   8.8377813
  26.8494693  54.1206063   9.1735783  27.1372503  53.8660363   8.2968793
  27.3617913  53.5683423   9.7641353  28.0671703  37.8596263   9.7532293
  27.2843493  38.3341763  10.0329053  27.7734633  36.9551093   9.6445473
  32.6192773  38.5619363   7.7981383  33.0600863  38.5064463   6.9502983
  32.3500363  39.4777373   7.8691563  34.4831343  38.1934603   5.8090203
  34.4219743  37.2495823   5.6621223  35.2623373  38.3014693   6.3543663
  18.7884093  54.3326963   4.7714153  18.6206133  53.6997643   5.4696043
  17.9218603  54.5386363   4.4208343  25.9525923  40.2783013   5.2648323
  25.1400433  39.9039903   4.9244203  26.4567563  39.5228093   5.5669513
  30.4550903  36.9425463   6.5031393  31.0580273  37.5145673   6.9779913
  29.7143893  37.5064903   6.2805293  33.5985503  37.3447023   1.7771673
  33.7936133  38.2430473   2.0439103  32.8115373  37.1134103   2.2704623
  23.9775103  38.4282933   3.8693373  23.3477843  37.7270243   4.0363503
  23.4380243  39.1887063   3.6526533  26.9167053  55.0422163  16.5403983
  27.8434363  54.8066433  16.5839943  26.9017483  55.8694163  16.0590013
  35.1512113  54.5847733   3.5378233  35.3264303  53.8985473   2.8939153
  34.4533683  55.1094783   3.1454903  24.1030663  37.7066913  16.3045863
  23.8214933  38.2100513  15.5406683  24.4850363  36.9088663  15.9387993
  30.7046123  37.1220493  16.8826333  30.5911573  37.4415103  17.7777853
  31.5215863  37.5233003  16.5863613  33.4844613  54.2692023  16.3645023
  34.2769933  53.7741253  16.1570983  33.7777763  54.9482163  16.9720633
  29.6104273  26.3669473  62.3435033  29.5298323  25.4524083  62.0726743
  29.1968693  26.8636543  61.6374743  27.7422313  28.1448493  64.2244303
  26.9664413  27.6648933  64.5142873  28.3935243  27.4654143  64.0500463
  21.7588143  28.4568303  65.1020063  20.9273023  28.2017013  65.5016573
  22.3669123  28.5279073  65.8377983  31.7629743  32.5508683  63.0043433
  31.3011273  31.7795923  63.3330603  32.5755293  32.5774753  63.5095883
  21.7389403  32.4908393  65.2978083  22.0417443  31.6006133  65.1188303
  22.4832993  33.0478613  65.0700333  20.1680093  23.4170193  58.8862453
  19.2796793  23.7586163  58.7842333  20.4521283  23.2170513  57.9943283
  18.1313103  26.0175843  64.7702153  18.7029213  25.2498043  64.7705793
  18.1314643  26.3164603  63.8608763  27.9893053  34.8366693  62.6247423
  27.3704493  35.2924193  62.0541863  28.8444833  34.9918153  62.2237123
  27.1831303  30.8205683  64.2314463  27.1139583  29.8795623  64.0703593
  27.9451163  30.9107093  64.8037033  19.3737973  21.4260203  66.5571083
  19.1940813  20.5285953  66.8373843  18.9718053  21.9732073  67.2318033
  28.2136473  23.6276063  64.4583393  28.5901293  22.7547943  64.3457063
  28.1155983  23.9634763  63.5673833  22.3441483  22.0001693  59.9200833
  22.4508233  22.9005423  60.2269593  21.4333843  21.9519663  59.6295483
  31.9960593  21.1226503  61.3911733  32.8170213  20.6323073  61.4337213
  32.0294673  21.7124163  62.1443573  19.9924643  23.9220703  65.1653423
  20.6734753  24.1859073  65.7840823  19.6772693  23.0821573  65.4991433
  24.1849213  24.9688063  64.2526013  24.6927433  25.4669033  64.8931033
  24.7162453  24.1923263  64.0765373  36.2860143  23.1393253  67.9555363
  35.5812313  23.5274963  67.4370473  36.5518063  23.8343543  68.5576293
  22.4685313  19.6086623  68.5189433  22.4703753  20.1259013  67.7135333
  21.6389623  19.1316803  68.4959363  28.8556403  29.7205933  60.0179333
  28.2373673  30.1855383  59.4542053  29.3679653  30.4133413  60.4348843
  23.7188163  29.2481803  66.6962933  23.3857543  29.8750723  67.3384003
  23.8954843  29.7743683  65.9164603  32.2322073  23.0626883  64.1639273
  31.5277643  23.3511773  64.7442383  32.5934233  23.8726993  63.8038833
  22.1500643  21.3196583  66.5259883  22.4917453  22.1638633  66.2313753
  21.2116453  21.4680323  66.6425223  22.9307263  31.2162603  68.5112113
  23.5481263  31.8913683  68.2296563  22.0700383  31.6250583  68.4199613
  18.2239603  30.4062463  57.3918963  17.8467583  30.8949563  56.6603863
  18.4812673  31.0787743  58.0225493  33.8484853  32.6802013  66.4266753
  33.1648373  33.3501123  66.4183423  34.3879143  32.8782663  65.6611613
  35.3008993  22.5081673  64.5548483  34.3533903  22.5420653  64.6863913
  35.6258983  23.3220623  64.9397843  25.8328533  18.8078853  62.8504473
  26.1403513  18.2525743  62.1339973  24.9029233  18.9423313  62.6677463
  31.3843593  34.5246143  65.1411933  31.3970753  34.1208433  64.2734193
  30.8318813  35.2993433  65.0373363  32.6789013  31.2462363  60.2302103
  32.5685343  30.3036693  60.3551523  32.6757263  31.6078003  61.1164863
  30.7829033  29.4275983  66.4694543  31.1997823  29.2136093  65.6348003
  31.5068853  29.6848773  67.0403163  28.2209293  26.8727683  59.5864593
  27.2938573  26.8065063  59.8153063  28.3734113  27.8107813  59.4719833
  28.2078373  23.1444683  56.5831753  27.2682043  23.3058643  56.6684213
  28.5261633  23.8630363  56.0367743  34.7291133  27.8263203  66.5610783
  33.9009763  27.8956293  66.0860913  35.3241613  28.4117513  66.0926613
  32.2506583  28.4347983  60.0899843  31.6319003  28.0967533  59.4426143
  32.2331033  27.7907743  60.7979033  31.6933143  24.6132523  67.5065653
  31.2804323  25.4386233  67.7605643  30.9609093  24.0277563  67.3142013
  23.8265933  27.3992423  62.3684323  23.4222933  26.6869673  61.8730223
  23.9129053  27.0545663  63.2572363  24.2947633  31.0859983  64.5323533
  23.9975923  30.4805453  63.8531313  25.2447453  31.1237293  64.4212893
  22.5394553  24.1735633  66.1483363  23.0909143  24.2830973  65.3736613
  23.0538063  24.5473233  66.8638593  32.3833243  34.6591853  68.1946633
  31.9063803  35.4664043  68.0019243  31.6995033  34.0070183  68.3472843
  30.4271283  27.6734793  57.0972593  30.8664563  26.8357223  56.9510413
  31.1399703  28.3064193  57.1836733  28.5366663  32.6130863  61.0653833
  28.9762573  33.3555193  60.6509223  28.4753553  32.8557433  61.9892793
  34.0088423  18.9277603  55.4113633  33.6961083  19.0204433  56.3112703
  34.7700893  19.5058633  55.3611063  20.5270563  26.2937403  59.8690973
  20.4068163  27.0199493  59.2572243  20.2171453  25.5240313  59.3918883
  18.1655933  29.4652543  65.6759613  18.2436353  29.6001313  64.7315333
  18.7797613  28.7568433  65.8687733  19.4103563  31.1652733  62.0865793
  19.0031643  31.3067323  61.2319393  20.3016573  30.8812893  61.8837003
  29.2282443  35.3144643  68.9932843  29.7427113  35.2252653  69.7955273
  28.3851523  35.6604343  69.2860753  31.2036843  35.5999983  58.4216843
  31.0437983  35.3102923  59.3198673  31.0383553  34.8240113  57.8862073
  23.6825223  35.3798513  60.1988463  23.5067703  34.4634053  59.9856263
  22.8280963  35.7385803  60.4386263  30.9062973  33.1087543  56.9814843
  30.2128133  33.1064833  56.3217123  31.6485833  32.6846863  56.5509013
  30.4712903  34.7350253  61.0563333  30.9269853  33.9539633  61.3701953
  30.8105423  35.4457073  61.6004513  18.2215453  30.5066713  68.2154073
  18.3846493  30.0372073  67.3973443  18.6867903  29.9990273  68.8802913
  22.9934223  19.6372473  63.2514643  22.5502373  20.4182013  62.9199163
  23.5519213  19.9602363  63.9585583  27.2804033  22.5040993  68.8549963
  26.8183403  22.7124013  69.6669903  26.8782143  21.6900343  68.5520633
  26.1093043  19.2583173  58.1320473  25.4847223  19.2543043  58.8573783
  26.0223163  18.3914133  57.7356443  25.0310123  20.1819803  65.1104243
  25.3282453  21.0882633  65.0296263  25.5795683  19.6938583  64.4963813
  22.7848443  24.7606043  60.9795893  22.5589363  24.5443213  61.8842513
  22.0040973  25.1934503  60.6341863  30.0146203  24.7669413  59.5786543
  29.4155093  25.4905213  59.3950163  30.5625813  24.7046193  58.7962993
  28.6211073  23.4032953  61.6089823  29.0140643  23.7205153  60.7958513
  28.9827923  22.5244833  61.7234343  17.6575243  19.9933753  63.8320023
  17.3688293  20.5636613  64.5445003  18.4021003  19.5138203  64.1951253
  17.8445473  23.9353873  55.0422743  17.7620143  24.8784633  55.1837733
  17.4928533  23.7928783  54.1635093  29.2066213  25.9938703  65.7040603
  28.4747333  26.5025513  66.0530703  28.8090553  25.1768683  65.4029383
  25.6443603  22.6692903  64.1093093  25.6479663  22.2282853  63.2597633
  26.5394723  22.9910233  64.2164913  21.4945983  22.5519393  63.0687303
  21.1546033  23.0294623  63.8254353  20.7323303  22.0984513  62.7088403
  25.7063753  23.6704983  57.0999853  25.8276573  23.6291463  58.0485673
  25.3212263  24.5329133  56.9446583  29.6692123  21.4472383  65.1163543
  29.6864863  21.8981033  65.9605393  29.4207703  20.5478023  65.3296983
  24.7185253  25.9806123  56.4983153  24.1502153  25.5324373  55.8719063
  25.4274253  26.3398903  55.9648303  25.9451573  26.7294683  65.8558503
  26.3121703  26.2553253  66.6019843  25.7556633  27.6036253  66.1966843
  18.8092063  21.4738373  61.9851973  18.5238983  21.1094043  62.8230593
  18.7470923  20.7418833  61.3715113  23.7350943  25.7703323  68.1742713
  23.4308013  26.6495303  68.3993073  24.6897403  25.8303113  68.2100153
  22.2632733  29.9764313  58.7709563  21.4894993  29.4361933  58.6108283
  22.9927363  29.4570923  58.4327323  33.0220713  28.9729673  64.5635953
  33.7419833  29.4684963  64.1732063  32.8202533  28.2947563  63.9189823
  28.4830653  20.3667633  58.7065343  27.6695263  19.8680803  58.6310653
  28.2892603  21.2065883  58.2901693  31.1979043  24.7387283  57.0027503
  32.0858663  25.0504513  56.8278843  31.1684133  23.8659533  56.6108083
  22.3070133  29.6444693  62.4088373  22.8248803  28.8412953  62.3545263
  21.8554153  29.5823833  63.2505203  27.1939633  30.9110973  57.6815673
  27.5355333  31.6553203  57.1858993  26.3652343  31.2242093  58.0440503
  33.4693313  26.0499123  56.4707363  33.3857033  26.4813343  55.6203803
  34.1887503  26.5097473  56.9034183  34.5467453  28.5066643  69.5477333
  33.8215643  29.0995423  69.3506723  35.0742913  28.4990183  68.7490703
  34.4980563  32.9041383  59.1989493  33.8556723  32.2497003  59.4733213
  34.1111223  33.3096473  58.4230163  30.0767043  30.2326813  63.0461183
  30.4290863  29.6354943  62.3862553  29.1929373  29.9071043  63.2169433
  26.1630323  30.9924503  60.4531593  26.8501453  31.5393713  60.8339183
  25.3762743  31.5365233  60.4881203  18.3022723  26.6097323  55.9448673
  19.1717573  26.8922123  56.2284593  17.8113043  27.4233193  55.8297483
  25.4657533  27.9970533  60.0656953  25.9220313  28.8075783  60.2917143
  25.1145743  27.6793673  60.8975443  27.7690143  33.5076873  67.2949253
  28.4132363  33.7136253  67.9722673  28.1319583  32.7465273  66.8420103
  21.3669313  18.3408183  60.5379473  21.2383943  18.3326083  61.4864393
  20.5431333  18.6791273  60.1870483  29.0422223  31.5109223  66.0126703
  29.6844453  30.8102383  66.1258873  29.5671573  32.2907663  65.8323593
  32.8877943  31.7957843  55.7365843  32.6615523  31.0788283  56.3290483
  32.4974143  31.5470283  54.8987593  18.6693973  35.8224703  56.5110303
  19.0291613  36.4214043  55.8567573  18.5286313  36.3684593  57.2845333
  32.4694193  29.7129783  57.3980003  32.1815893  30.1742473  58.1857883
  33.2646363  29.2527553  57.6664223  24.6862593  33.2055903  57.3283973
  24.6772693  33.9385593  56.7128483  23.7660953  32.9587483  57.4210933
  20.2869233  28.4270793  58.0730733  19.6797183  29.1669693  58.0826033
  20.7618583  28.5170153  57.2468933  29.8602023  22.5921613  67.7487623
  30.2282843  21.7716823  68.0767193  29.0000223  22.6523503  68.1643273
  33.2264053  21.5478553  58.5575183  32.5977213  21.6524223  57.8433413
  32.7315973  21.7675333  59.3469063  27.6722193  33.2684143  55.9909163
  27.7734173  33.0648133  55.0611143  26.7723933  33.0142423  56.1956943
  25.1948083  23.8264503  59.9733063  24.4864233  24.2950843  60.4146673
  25.4792563  23.1686513  60.6078253  26.8204013  25.2461203  67.9725593
  27.3189263  25.7207023  68.6377443  26.9626963  24.3224723  68.1795623
  29.2263513  20.5515163  61.4128853  29.1031293  20.5701293  60.4638363
  30.1748073  20.5994103  61.5327253  26.3140303  35.7870463  60.6856833
  26.5681803  35.7491853  59.7636203  25.3652783  35.6603793  60.6785083
  23.3983103  22.1349583  57.3483773  24.2473633  22.5719733  57.2823963
  23.0314373  22.4469843  58.1755833  34.0270873  21.4629163  68.8153983
  33.5244473  22.2034563  69.1547793  34.8427533  21.8513163  68.4990773
  32.3192883  26.7062343  62.2615343  31.3783023  26.7212573  62.4363033
  32.6336953  25.9198303  62.7075643  22.2974523  28.3881943  55.8219303
  23.0637793  28.2763303  56.3844733  22.3749213  27.6919913  55.1696073
  20.9921283  25.8207013  56.5052193  21.0724873  24.8734523  56.6169593
  21.8841033  26.1513893  56.6112853  34.3218463  33.8771193  63.9369603
  34.4465883  34.7002363  64.4093413  35.1884023  33.6661923  63.5893753
  21.7935993  35.9702403  63.6086733  22.5298473  35.4217863  63.8795303
  22.1776913  36.8358413  63.4692723  18.6781473  32.0375973  59.4828243
  17.7521253  32.2797113  59.4733653  19.1437903  32.8650233  59.3612993
  24.9038303  35.1432713  55.4312303  25.6966913  35.4321543  54.9794093
  24.3842653  34.7124883  54.7524783  33.9568473  34.3702843  56.8549043
  33.6709983  33.9567983  56.0403223  33.7588023  35.2990553  56.7349563
  25.4215703  30.3636123  55.2954653  25.3166343  29.7488473  56.0216033
  25.2539923  29.8402013  54.5117663  28.6618433  29.4256153  55.8996643
  28.1128533  29.8725453  56.5439383  29.2837693  28.9205403  56.4234313
  24.3293553  28.3847073  57.7961943  24.7509973  28.2186943  58.6393333
  24.4544393  27.5747303  57.3017083  26.8421193  27.4084683  55.0439043
  27.3626853  26.6933703  54.6780193  27.4889593  28.0470553  55.3439553
  25.7454713  19.8879233  67.7157603  25.2972013  19.9103493  66.8703153
  25.1119913  19.4898253  68.3127903  26.1514263  28.7833563  68.3370043
  26.5702373  29.6266293  68.1646283  25.2322893  28.9205603  68.1076823
  30.8266063  27.0686933  68.2970393  30.3001283  27.5929553  67.6935533
  31.1697403  27.7014323  68.9280123  23.2252453  24.4580303  54.7420103
  23.0241513  23.5947663  55.1033443  23.0544503  24.3713663  53.8041703
  24.0021683  35.0886573  69.4527773  23.4642773  35.8132633  69.1336473
  24.2555643  34.6116913  68.6625113  30.7040763  19.2688533  57.2706983
  30.9843053  18.4256433  57.6266403  29.9306493  19.5011643  57.7845733
  22.0235253  21.5580923  54.7297983  22.3261153  21.5648353  53.8217133
  22.7629843  21.2078783  55.2265643  25.2420183  20.5015543  55.7154183
  24.8942183  19.8239533  55.1356633  25.4432953  20.0405053  56.5297573
  27.4069223  35.4896293  57.3340783  28.3020013  35.8281263  57.3559543
  27.4386853  34.7675703  56.7065063  21.0465383  30.8623343  55.5627783
  21.4840253  31.4053013  56.2185363  21.5313113  30.0370293  55.5724123
  18.2611183  33.6512373  63.0148043  18.5914193  32.7833433  62.7826683
  18.6902183  33.8570893  63.8453003  22.8573103  31.9821383  60.6750013
  22.5568643  31.8586353  61.5753923  22.7510593  31.1229973  60.2665743
  18.7501393  34.5182963  65.7529673  18.3132383  34.6983763  66.5853823
  19.3179073  35.2757583  65.6111393  35.6265023  31.7617783  55.3776693
  34.7957983  31.8294433  55.8483923  35.8036853  32.6521903  55.0743553
  35.0821483  28.5065263  57.8810893  35.8440393  29.0761913  57.9870583
  35.0975853  27.9392463  58.6519203  18.5825823  27.0303193  62.1118553
  17.9274663  26.7614833  61.4678253  19.4203773  26.9207673  61.6620533
  36.0881453  29.3615363  62.7252823  36.4590283  28.5782683  62.3188793
  36.7283383  30.0504463  62.5470123  33.0715213  30.7451943  68.1383143
  32.2575053  31.1749103  68.4008933  33.4789413  31.3570353  67.5252193
  35.1340653  28.7999633  55.0383413  35.4089493  29.7078513  54.9102633
  34.9451393  28.7362163  55.9745403  31.5316263  21.8244483  56.3337043
  31.9501143  21.6375463  55.4933703  31.2252323  20.9723533  56.6439973
  35.0305993  26.7368623  60.0312843  34.6549593  25.9696553  59.5994133
  34.3009113  27.1191323  60.5187773  19.6201753  27.4155763  66.6521893
  19.9874793  27.3283163  67.5317913  19.0512573  26.6522313  66.5528753
  34.4205613  25.8840143  69.6652363  34.1891703  25.6552893  68.7650313
  34.6810163  26.8039693  69.6197253  17.7963903  24.2402123  58.0543883
  16.8927983  24.5032323  57.8795543  18.2804523  24.5113293  57.2743843
  34.3056953  24.9626113  63.3320083  34.8294433  24.4688763  62.7010253
  34.8916373  25.0976473  64.0767653  34.4846673  25.0465983  66.8539633
  33.5349383  25.0129523  66.9684623  34.6659683  25.9566093  66.6189403
  20.3391113  23.2967663  55.9638263  21.0482813  22.8750883  55.4785543
  19.6231053  23.3642893  55.3321613  19.9865273  19.3506993  55.0040913
  20.7093403  19.8915933  55.3222133  20.2589793  19.0770413  54.1282453
  33.7956923  24.2199463  59.2712493  34.2916043  23.9870333  60.0561373
  33.5972993  23.3811303  58.8550133  19.6757463  18.6013183  64.9063533
  20.3233653  18.0510563  64.4658693  20.0959303  18.8556333  65.7279343
  35.2244083  22.8560413  61.8050173  35.1143363  22.7016453  62.7432443
  35.9851673  22.3281353  61.5625583  33.5709803  18.7954543  68.2633173
  34.2082023  19.4088683  68.6292363  33.7184693  18.8315203  67.3182403
  36.1134353  20.6868333  55.0456313  37.0383663  20.5549513  54.8374603
  36.0910143  20.7661153  55.9992763  36.1872843  21.4578993  57.6713023
  35.3924343  21.3924113  58.2005933  36.3916123  22.3929633  57.6598373
  33.1291263  35.4970543  61.6651413  33.7250333  35.1755113  60.9885833
  33.3869413  35.0242363  62.4564683  19.4289463  18.7568853  67.6488853
  19.0804283  19.2132673  68.4147033  19.0977163  17.8625983  67.7311283
  24.7359863  33.4848043  67.4151763  24.4951223  33.7522603  66.5282283
  25.6762503  33.6553773  67.4702623  35.9964023  35.5042423  68.2162403
  35.5022303  35.9011293  67.4989533  35.3877313  34.8791633  68.6099683
  20.8741863  34.8750703  68.9339823  20.2802183  34.7435403  69.6729863
  20.8665703  34.0388843  68.4681923  30.3196883  18.1682933  67.1369853
  29.4456723  18.5018043  66.9342783  30.2107633  17.6956113  67.9621723
  31.2268863  20.3753803  68.5211573  30.8982223  19.5605563  68.1413303
  32.1751163  20.3323613  68.3977263  33.6803473  36.1465843  65.4949143
  33.2206443  36.8981653  65.1207163  33.0515933  35.4272313  65.4363943
  20.5054093  32.2409083  67.8847863  19.7788153  31.6214373  67.8173813
  20.5663243  32.6349693  67.0145943  24.1099193  34.4554083  64.6697273
  24.6264213  33.8441443  64.1445533  24.7596573  34.9582863  65.1608283
  26.8494693  35.3462573  65.4966253  27.1372503  35.0916873  64.6199263
  27.3617913  34.7939933  66.0871823  28.0671703  19.0852773  66.0762763
  27.2843493  19.5598273  66.3559523  27.7734633  18.1807603  65.9675943
  32.6192773  19.7875873  64.1211853  33.0600863  19.7320973  63.2733453
  32.3500363  20.7033883  64.1922033  34.4831343  19.4191113  62.1320673
  34.4219743  18.4752333  61.9851693  35.2623373  19.5271203  62.6774133
  18.7884093  35.5583473  61.0944623  18.6206133  34.9254153  61.7926513
  17.9218603  35.7642873  60.7438813  19.4112113  19.3900253  58.5976483
  20.1691473  19.5029133  58.0240513  18.9489283  20.2269453  58.5519913
  25.9525923  21.5039523  61.5878793  25.1400433  21.1296413  61.2474673
  26.4567563  20.7484603  61.8899983  30.4550903  18.1681973  62.8261863
  31.0580273  18.7402183  63.3010383  29.7143893  18.7321413  62.6035763
  33.5985503  18.5703533  58.1002143  33.7936133  19.4686983  58.3669573
  32.8115373  18.3390613  58.5935093  20.3946793  34.2516703  58.5394763
  19.8694413  34.6324733  57.8356723  20.3191373  34.8767473  59.2604473
  21.7837263  19.9164303  57.1378453  22.3130023  19.1294103  57.0086403
  22.4165583  20.5955493  57.3713983  23.9775103  19.6539443  60.1923843
  23.3477843  18.9526753  60.3593973  23.4380243  20.4143573  59.9757003
  35.1512113  35.8104243  59.8608703  35.3264303  35.1241983  59.2169623
  34.4533683  36.3351293  59.4685373  22.9939763  36.1999083  57.4144013
  23.7258583  35.9158363  56.8667903  23.2533433  35.9612363  58.3043393
  22.1554553  32.3163813  57.4190343  21.5263433  32.7848913  57.9676173
  22.2702383  31.4713033  57.8536533  29.6104273  26.3669473  43.5691543
  29.5298323  25.4524083  43.2983253  29.1968693  26.8636543  42.8631253
  27.7422313  28.1448493  45.4500813  26.9664413  27.6648933  45.7399383
  28.3935243  27.4654143  45.2756973  21.7588143  28.4568303  46.3276573
  20.9273023  28.2017013  46.7273083  22.3669123  28.5279073  47.0634493
  31.7629743  32.5508683  44.2299943  31.3011273  31.7795923  44.5587113
  32.5755293  32.5774753  44.7352393  21.7389403  32.4908393  46.5234593
  22.0417443  31.6006133  46.3444813  22.4832993  33.0478613  46.2956843
  20.1680093  23.4170193  40.1118963  19.2796793  23.7586163  40.0098843
  20.4521283  23.2170513  39.2199793  18.1313103  26.0175843  45.9958663
  18.7029213  25.2498043  45.9962303  18.1314643  26.3164603  45.0865273
  27.9893053  34.8366693  43.8503933  27.3704493  35.2924193  43.2798373
  28.8444833  34.9918153  43.4493633  27.1831303  30.8205683  45.4570973
  27.1139583  29.8795623  45.2960103  27.9451163  30.9107093  46.0293543
  19.3737973  21.4260203  47.7827593  19.1940813  20.5285953  48.0630353
  18.9718053  21.9732073  48.4574543  28.2136473  23.6276063  45.6839903
  28.5901293  22.7547943  45.5713573  28.1155983  23.9634763  44.7930343
  22.3441483  22.0001693  41.1457343  22.4508233  22.9005423  41.4526103
  21.4333843  21.9519663  40.8551993  31.9960593  21.1226503  42.6168243
  32.8170213  20.6323073  42.6593723  32.0294673  21.7124163  43.3700083
  19.9924643  23.9220703  46.3909933  20.6734753  24.1859073  47.0097333
  19.6772693  23.0821573  46.7247943  24.1849213  24.9688063  45.4782523
  24.6927433  25.4669033  46.1187543  24.7162453  24.1923263  45.3021883
  36.2860143  23.1393253  49.1811873  35.5812313  23.5274963  48.6626983
  36.5518063  23.8343543  49.7832803  22.4685313  19.6086623  49.7445943
  22.4703753  20.1259013  48.9391843  21.6389623  19.1316803  49.7215873
  28.8556403  29.7205933  41.2435843  28.2373673  30.1855383  40.6798563
  29.3679653  30.4133413  41.6605353  23.7188163  29.2481803  47.9219443
  23.3857543  29.8750723  48.5640513  23.8954843  29.7743683  47.1421113
  32.2322073  23.0626883  45.3895783  31.5277643  23.3511773  45.9698893
  32.5934233  23.8726993  45.0295343  22.1500643  21.3196583  47.7516393
  22.4917453  22.1638633  47.4570263  21.2116453  21.4680323  47.8681733
  22.9307263  31.2162603  49.7368623  23.5481263  31.8913683  49.4553073
  22.0700383  31.6250583  49.6456123  18.2239603  30.4062463  38.6175473
  17.8467583  30.8949563  37.8860373  18.4812673  31.0787743  39.2482003
  33.8484853  32.6802013  47.6523263  33.1648373  33.3501123  47.6439933
  34.3879143  32.8782663  46.8868123  35.3008993  22.5081673  45.7804993
  34.3533903  22.5420653  45.9120423  35.6258983  23.3220623  46.1654353
  25.8328533  18.8078853  44.0760983  26.1403513  18.2525743  43.3596483
  24.9029233  18.9423313  43.8933973  31.3843593  34.5246143  46.3668443
  31.3970753  34.1208433  45.4990703  30.8318813  35.2993433  46.2629873
  32.6789013  31.2462363  41.4558613  32.5685343  30.3036693  41.5808033
  32.6757263  31.6078003  42.3421373  30.7829033  29.4275983  47.6951053
  31.1997823  29.2136093  46.8604513  31.5068853  29.6848773  48.2659673
  28.2209293  26.8727683  40.8121103  27.2938573  26.8065063  41.0409573
  28.3734113  27.8107813  40.6976343  28.2078373  23.1444683  37.8088263
  27.2682043  23.3058643  37.8940723  28.5261633  23.8630363  37.2624253
  34.7291133  27.8263203  47.7867293  33.9009763  27.8956293  47.3117423
  35.3241613  28.4117513  47.3183123  32.2506583  28.4347983  41.3156353
  31.6319003  28.0967533  40.6682653  32.2331033  27.7907743  42.0235543
  31.6933143  24.6132523  48.7322163  31.2804323  25.4386233  48.9862153
  30.9609093  24.0277563  48.5398523  23.8265933  27.3992423  43.5940833
  23.4222933  26.6869673  43.0986733  23.9129053  27.0545663  44.4828873
  24.2947633  31.0859983  45.7580043  23.9975923  30.4805453  45.0787823
  25.2447453  31.1237293  45.6469403  22.5394553  24.1735633  47.3739873
  23.0909143  24.2830973  46.5993123  23.0538063  24.5473233  48.0895103
  32.3833243  34.6591853  49.4203143  31.9063803  35.4664043  49.2275753
  31.6995033  34.0070183  49.5729353  23.3866063  30.8241673  52.4087843
  22.4894593  31.0481643  52.6561243  23.4118933  30.9476613  51.4599243
  30.4271283  27.6734793  38.3229103  30.8664563  26.8357223  38.1766923
  31.1399703  28.3064193  38.4093243  22.2137283  27.6954993  50.9845213
  22.0745053  28.5677793  51.3532613  21.3318643  27.3527803  50.8393153
  28.5366663  32.6130863  42.2910343  28.9762573  33.3555193  41.8765733
  28.4753553  32.8557433  43.2149303  24.0117633  33.6376693  53.1930363
  23.9833063  34.0419643  52.3258793  23.8482603  32.7087053  53.0301963
  34.0088423  18.9277603  36.6370143  33.6961083  19.0204433  37.5369213
  34.7700893  19.5058633  36.5867573  20.5270563  26.2937403  41.0947483
  20.4068163  27.0199493  40.4828753  20.2171453  25.5240313  40.6175393
  35.9632453  34.4203793  54.4894533  36.4392173  34.8986683  55.1683613
  36.5839613  34.3521283  53.7640033  18.1655933  29.4652543  46.9016123
  18.2436353  29.6001313  45.9571843  18.7797613  28.7568433  47.0944243
  19.4103563  31.1652733  43.3122303  19.0031643  31.3067323  42.4575903
  20.3016573  30.8812893  43.1093513  35.3665703  31.6116643  51.6494543
  35.4928763  31.3728523  50.7311723  35.4087083  30.7801183  52.1216623
  29.2282443  35.3144643  50.2189353  29.7427113  35.2252653  51.0211783
  28.3851523  35.6604343  50.5117263  23.6825223  35.3798513  41.4244973
  23.5067703  34.4634053  41.2112773  22.8280963  35.7385803  41.6642773
  30.9062973  33.1087543  38.2071353  30.2128133  33.1064833  37.5473633
  31.6485833  32.6846863  37.7765523  30.4712903  34.7350253  42.2819843
  30.9269853  33.9539633  42.5958463  30.8105423  35.4457073  42.8261023
  35.2189713  23.6649103  52.6144283  34.6033983  24.1728773  52.0859743
  34.8986133  22.7647433  52.5570223  18.2215453  30.5066713  49.4410583
  18.3846493  30.0372073  48.6229953  18.6867903  29.9990273  50.1059423
  22.9934223  19.6372473  44.4771153  22.5502373  20.4182013  44.1455673
  23.5519213  19.9602363  45.1842093  27.2804033  22.5040993  50.0806473
  26.8183403  22.7124013  50.8926413  26.8782143  21.6900343  49.7777143
  32.2808543  23.7249943  51.2103133  31.4302133  23.4255693  51.5312203
  32.1210333  23.9691953  50.2986953  29.3758253  25.2251693  53.3101923
  29.7011663  24.3915443  52.9704153  30.1638583  25.7480213  53.4580253
  26.1093043  19.2583173  39.3576983  25.4847223  19.2543043  40.0830293
  26.0223163  18.3914133  38.9612953  25.0310123  20.1819803  46.3360753
  25.3282453  21.0882633  46.2552773  25.5795683  19.6938583  45.7220323
  22.7848443  24.7606043  42.2052403  22.5589363  24.5443213  43.1099023
  22.0040973  25.1934503  41.8598373  30.0146203  24.7669413  40.8043053
  29.4155093  25.4905213  40.6206673  30.5625813  24.7046193  40.0219503
  25.2247653  25.6591623  52.8712673  25.1291253  24.7186353  52.7213073
  26.0679633  25.8806693  52.4760743  28.6211073  23.4032953  42.8346333
  29.0140643  23.7205153  42.0215023  28.9827923  22.5244833  42.9490853
  20.3558193  22.0705293  51.0246453  19.9621583  22.9180503  51.2319233
  19.6676593  21.4331663  51.2155093  26.9303243  22.1540263  54.0943193
  26.2401563  21.9612463  54.7289283  27.6735543  22.4374903  54.6267493
  17.6575243  19.9933753  45.0576533  17.3688293  20.5636613  45.7701513
  18.4021003  19.5138203  45.4207763  17.8445473  23.9353873  36.2679253
  17.7620143  24.8784633  36.4094243  17.4928533  23.7928783  35.3891603
  29.2066213  25.9938703  46.9297113  28.4747333  26.5025513  47.2787213
  28.8090553  25.1768683  46.6285893  25.6443603  22.6692903  45.3349603
  25.6479663  22.2282853  44.4854143  26.5394723  22.9910233  45.4421423
  21.4945983  22.5519393  44.2943813  21.1546033  23.0294623  45.0510863
  20.7323303  22.0984513  43.9344913  25.7063753  23.6704983  38.3256363
  25.8276573  23.6291463  39.2742183  25.3212263  24.5329133  38.1703093
  29.6692123  21.4472383  46.3420053  29.6864863  21.8981033  47.1861903
  29.4207703  20.5478023  46.5553493  24.7185253  25.9806123  37.7239663
  24.1502153  25.5324373  37.0975573  25.4274253  26.3398903  37.1904813
  33.0962873  18.8604563  52.1806433  33.4208643  18.1294223  52.7064413
  33.1319383  18.5418203  51.2787423  19.7954433  29.8818143  51.6006393
  19.4109223  29.2411813  52.1989353  20.1066623  30.5854263  52.1701123
  25.9451573  26.7294683  47.0815013  26.3121703  26.2553253  47.8276353
  25.7556633  27.6036253  47.4223353  18.8092063  21.4738373  43.2108483
  18.5238983  21.1094043  44.0487103  18.7470923  20.7418833  42.5971623
  23.7350943  25.7703323  49.3999223  23.4308013  26.6495303  49.6249583
  24.6897403  25.8303113  49.4356663  22.2632733  29.9764313  39.9966073
  21.4894993  29.4361933  39.8364793  22.9927363  29.4570923  39.6583833
  33.0220713  28.9729673  45.7892463  33.7419833  29.4684963  45.3988573
  32.8202533  28.2947563  45.1446333  28.4830653  20.3667633  39.9321853
  27.6695263  19.8680803  39.8567163  28.2892603  21.2065883  39.5158203
  28.4039513  29.0438733  51.6761463  28.3376823  28.1234403  51.4219053
  27.7744653  29.1414173  52.3906103  31.1979043  24.7387283  38.2284013
  32.0858663  25.0504513  38.0535353  31.1684133  23.8659533  37.8364593
  22.3070133  29.6444693  43.6344883  22.8248803  28.8412953  43.5801773
  21.8554153  29.5823833  44.4761713  27.1939633  30.9110973  38.9072183
  27.5355333  31.6553203  38.4115503  26.3652343  31.2242093  39.2697013
  19.7914673  26.6106063  50.5470583  19.4329613  27.2759913  51.1343923
  19.4969233  25.7789613  50.9183203  22.9927793  27.0690303  53.4310133
  22.6927933  27.2147483  52.5337953  23.7639033  26.5095593  53.3383523
  28.3356243  31.8659303  51.4265263  28.3500783  30.9340263  51.2084173
  27.6281343  31.9519063  52.0655033  33.4693313  26.0499123  37.6963873
  33.3857033  26.4813343  36.8460313  34.1887503  26.5097473  38.1290693
  34.5467453  28.5066643  50.7733843  33.8215643  29.0995423  50.5763233
  35.0742913  28.4990183  49.9747213  30.0767043  30.2326813  44.2717693
  30.4290863  29.6354943  43.6119063  29.1929373  29.9071043  44.4425943
  26.1630323  30.9924503  41.6788103  26.8501453  31.5393713  42.0595693
  25.3762743  31.5365233  41.7137713  18.3022723  26.6097323  37.1705183
  19.1717573  26.8922123  37.4541103  17.8113043  27.4233193  37.0553993
  25.4657533  27.9970533  41.2913463  25.9220313  28.8075783  41.5173653
  25.1145743  27.6793673  42.1231953  27.7690143  33.5076873  48.5205763
  28.4132363  33.7136253  49.1979183  28.1319583  32.7465273  48.0676613
  21.3669313  18.3408183  41.7635983  21.2383943  18.3326083  42.7120903
  20.5431333  18.6791273  41.4126993  29.0422223  31.5109223  47.2383213
  29.6844453  30.8102383  47.3515383  29.5671573  32.2907663  47.0580103
  30.8159843  32.3104123  50.4419273  31.1516083  32.8970813  51.1197193
  29.8960183  32.1796833  50.6717063  18.6693973  35.8224703  37.7366813
  19.0291613  36.4214043  37.0824083  18.5286313  36.3684593  38.5101843
  18.3663243  20.0999303  51.2242683  17.6521763  20.2996223  51.8295293
  18.7858283  19.3238873  51.5957483  32.4694193  29.7129783  38.6236513
  32.1815893  30.1742473  39.4114393  33.2646363  29.2527553  38.8920733
  18.6535833  34.0879563  52.2109213  18.7626953  33.1474303  52.0704603
  18.0016393  34.3534313  51.5622943  26.6448423  32.3595453  53.6107333
  26.3245293  31.6404693  54.1553023  25.9706783  33.0350523  53.6843393
  24.6862593  33.2055903  38.5540483  24.6772693  33.9385593  37.9384993
  23.7660953  32.9587483  38.6467443  20.2869233  28.4270793  39.2987243
  19.6797183  29.1669693  39.3082543  20.7618583  28.5170153  38.4725443
  29.8602023  22.5921613  48.9744133  30.2282843  21.7716823  49.3023703
  29.0000223  22.6523503  49.3899783  33.2264053  21.5478553  39.7831693
  32.5977213  21.6524223  39.0689923  32.7315973  21.7675333  40.5725573
  27.6722193  33.2684143  37.2165673  27.7734173  33.0648133  36.2867653
  26.7723933  33.0142423  37.4213453  25.1948083  23.8264503  41.1989573
  24.4864233  24.2950843  41.6403183  25.4792563  23.1686513  41.8334763
  26.8204013  25.2461203  49.1982103  27.3189263  25.7207023  49.8633953
  26.9626963  24.3224723  49.4052133  29.2263513  20.5515163  42.6385363
  29.1031293  20.5701293  41.6894873  30.1748073  20.5994103  42.7583763
  26.3140303  35.7870463  41.9113343  26.5681803  35.7491853  40.9892713
  25.3652783  35.6603793  41.9041593  23.3983103  22.1349583  38.5740283
  24.2473633  22.5719733  38.5080473  23.0314373  22.4469843  39.4012343
  34.0270873  21.4629163  50.0410493  33.5244473  22.2034563  50.3804303
  34.8427533  21.8513163  49.7247283  32.3192883  26.7062343  43.4871853
  31.3783023  26.7212573  43.6619543  32.6336953  25.9198303  43.9332153
  22.2974523  28.3881943  37.0475813  23.0637793  28.2763303  37.6101243
  22.3749213  27.6919913  36.3952583  20.9921283  25.8207013  37.7308703
  21.0724873  24.8734523  37.8426103  21.8841033  26.1513893  37.8369363
  34.3218463  33.8771193  45.1626113  34.4465883  34.7002363  45.6349923
  35.1884023  33.6661923  44.8150263  21.7935993  35.9702403  44.8343243
  22.5298473  35.4217863  45.1051813  22.1776913  36.8358413  44.6949233
  18.6781473  32.0375973  40.7084753  17.7521253  32.2797113  40.6990163
  19.1437903  32.8650233  40.5869503  20.7994273  35.1548473  54.0228823
  21.6007003  35.4760523  54.4364223  20.2846093  34.7944053  54.7448733
  24.9038303  35.1432713  36.6568813  25.6966913  35.4321543  36.2050603
  24.3842653  34.7124883  35.9781293  29.6358903  31.2628343  53.9704233
  29.0297063  31.2859943  53.2299983  29.3313013  30.5311383  54.5071483
  31.0659273  34.9908633  52.5813643  32.0181023  34.9066653  52.5313883
  30.9187493  35.6550343  53.2547433  18.5192083  27.6421933  52.9664873
  19.0231103  27.0629213  53.5381103  17.7799503  27.9262163  53.5041243
  25.4215703  30.3636123  36.5211163  25.3166343  29.7488473  37.2472543
  25.2539923  29.8402013  35.7374173  25.5730023  29.0492923  52.5000393
  24.8075693  29.6177923  52.4155063  25.7545983  28.7569133  51.6068623
  28.6618433  29.4256153  37.1253153  28.1128533  29.8725453  37.7695893
  29.2837693  28.9205403  37.6490823  32.7153373  30.7798253  53.0575413
  33.4562843  31.1174013  52.5542873  31.9526053  30.9490313  52.5045183
  20.5515163  25.7851523  53.8614943  20.5920503  25.4865393  54.7700173
  21.4060663  26.1859133  53.7022463  24.3293553  28.3847073  39.0218453
  24.7509973  28.2186943  39.8649843  24.4544393  27.5747303  38.5273593
  22.4920973  24.3643623  51.8289433  21.9617433  23.8734573  51.2012773
  23.1609043  24.7927823  51.2947363  26.8421193  27.4084683  36.2695553
  27.3626853  26.6933703  35.9036703  27.4889593  28.0470553  36.5696063
  31.3899033  28.8313083  51.5930623  31.8040053  28.9858163  52.4421043
  30.4550033  28.9568303  51.7556403  31.8621203  26.1709243  53.5969773
  32.4441973  25.4161563  53.5090253  32.0382973  26.7016683  52.8201253
  22.9793273  21.3305993  51.9086723  22.8850143  20.7126743  51.1837593
  22.3990663  22.0572283  51.6816633  25.7454713  19.8879233  48.9414113
  25.2972013  19.9103493  48.0959663  25.1119913  19.4898253  49.5384413
  26.1514263  28.7833563  49.5626553  26.5702373  29.6266293  49.3902793
  25.2322893  28.9205603  49.3333333  28.4878163  26.5149743  50.9464393
  28.6074373  25.9190883  51.6859233  29.3472163  26.5519433  50.5265693
  30.8266063  27.0686933  49.5226903  30.3001283  27.5929553  48.9192043
  31.1697403  27.7014323  50.1536633  23.2252453  24.4580303  35.9676613
  23.0241513  23.5947663  36.3289953  23.0544503  24.3713663  35.0298213
  24.0021683  35.0886573  50.6784283  23.4642773  35.8132633  50.3592983
  24.2555643  34.6116913  49.8881623  25.2546933  23.0571093  52.2040213
  25.8446623  22.7486943  52.8918033  24.4367173  22.5850843  52.3600113
  30.0740363  22.6736903  52.4373233  29.3855883  22.0118443  52.3723223
  30.7946383  22.2275173  52.8821693  30.7040763  19.2688533  38.4963493
  30.9843053  18.4256433  38.8522913  29.9306493  19.5011643  39.0102243
  22.0235253  21.5580923  35.9554493  22.3261153  21.5648353  35.0473643
  22.7629843  21.2078783  36.4522153  26.8583893  36.3237783  50.9370933
  26.7842593  37.2272923  51.2443303  25.9562733  36.0049683  50.9093003
  25.2420183  20.5015543  36.9410693  24.8942183  19.8239533  36.3613143
  25.4432953  20.0405053  37.7554083  27.4069223  35.4896293  38.5597293
  28.3020013  35.8281263  38.5816053  27.4386853  34.7675703  37.9321573
  21.0465383  30.8623343  36.7884293  21.4840253  31.4053013  37.4441873
  21.5313113  30.0370293  36.7980633  18.2611183  33.6512373  44.2404553
  18.5914193  32.7833433  44.0083193  18.6902183  33.8570893  45.0709513
  22.8573103  31.9821383  41.9006523  22.5568643  31.8586353  42.8010433
  22.7510593  31.1229973  41.4922253  18.7501393  34.5182963  46.9786183
  18.3132383  34.6983763  47.8110333  19.3179073  35.2757583  46.8367903
  34.3863573  34.0199963  51.2663493  33.7865563  34.0792523  50.5227413
  34.5157473  33.0804943  51.3960343  35.0821483  28.5065263  39.1067403
  35.8440393  29.0761913  39.2127093  35.0975853  27.9392463  39.8775713
  18.5825823  27.0303193  43.3375063  17.9274663  26.7614833  42.6934763
  19.4203773  26.9207673  42.8877043  36.0881453  29.3615363  43.9509333
  36.4590283  28.5782683  43.5445303  36.7283383  30.0504463  43.7726633
  33.0715213  30.7451943  49.3639653  32.2575053  31.1749103  49.6265443
  33.4789413  31.3570353  48.7508703  35.1340653  28.7999633  36.2639923
  35.4089493  29.7078513  36.1359143  34.9451393  28.7362163  37.2001913
  31.5316263  21.8244483  37.5593553  31.9501143  21.6375463  36.7190213
  31.2252323  20.9723533  37.8696483  35.0305993  26.7368623  41.2569353
  34.6549593  25.9696553  40.8250643  34.3009113  27.1191323  41.7444283
  19.6201753  27.4155763  47.8778403  19.9874793  27.3283163  48.7574423
  19.0512573  26.6522313  47.7785263  34.4205613  25.8840143  50.8908873
  34.1891703  25.6552893  49.9906823  34.6810163  26.8039693  50.8453763
  19.1717753  24.3264853  51.7836823  18.2773803  24.2931613  52.1230533
  19.7115303  24.5251643  52.5488073  32.8593683  21.1096573  53.6688573
  33.7363863  21.1179973  54.0522573  32.8714523  20.3727413  53.0580923
  17.7963903  24.2402123  39.2800393  16.8927983  24.5032323  39.1052053
  18.2804523  24.5113293  38.5000353  34.3056953  24.9626113  44.5576593
  34.8294433  24.4688763  43.9266763  34.8916373  25.0976473  45.3024163
  34.4846673  25.0465983  48.0796143  33.5349383  25.0129523  48.1941133
  34.6659683  25.9566093  47.8445913  20.3391113  23.2967663  37.1894773
  21.0482813  22.8750883  36.7042053  19.6231053  23.3642893  36.5578123
  19.9865273  19.3506993  36.2297423  20.7093403  19.8915933  36.5478643
  20.2589793  19.0770413  35.3538963  33.7956923  24.2199463  40.4969003
  34.2916043  23.9870333  41.2817883  33.5972993  23.3811303  40.0806643
  19.6757463  18.6013183  46.1320043  20.3233653  18.0510563  45.6915203
  20.0959303  18.8556333  46.9535853  35.2244083  22.8560413  43.0306683
  35.1143363  22.7016453  43.9688953  35.9851673  22.3281353  42.7882093
  33.5709803  18.7954543  49.4889683  34.2082023  19.4088683  49.8548873
  33.7184693  18.8315203  48.5438913  36.1134353  20.6868333  36.2712823
  37.0383663  20.5549513  36.0631113  36.0910143  20.7661153  37.2249273
  36.1872843  21.4578993  38.8969533  35.3924343  21.3924113  39.4262443
  36.3916123  22.3929633  38.8854883  33.1291263  35.4970543  42.8907923
  33.7250333  35.1755113  42.2142343  33.3869413  35.0242363  43.6821193
  19.4289463  18.7568853  48.8745363  19.0804283  19.2132673  49.6403543
  19.0977163  17.8625983  48.9567793  21.0353833  31.9288453  53.0398553
  20.9923463  31.5581363  53.9213013  21.1664843  32.8666023  53.1800373
  24.7359863  33.4848043  48.6408273  24.4951223  33.7522603  47.7538793
  25.6762503  33.6553773  48.6959133  26.9414283  19.9480733  52.3964783
  26.8803173  20.5402563  53.1460193  27.8814663  19.8406693  52.2515043
  29.5788843  19.6050793  52.0357073  30.1929253  19.9230083  51.3738153
  30.1238403  19.1199383  52.6552933  35.9964023  35.5042423  49.4418913
  35.5022303  35.9011293  48.7246043  35.3877313  34.8791633  49.8356193
  20.1010103  18.2845053  52.1496133  20.6493093  18.1033103  51.3862243
  20.1665413  17.4939163  52.6852443  20.8741863  34.8750703  50.1596333
  20.2802183  34.7435403  50.8986373  20.8665703  34.0388843  49.6938433
  30.3196883  18.1682933  48.3626363  29.4456723  18.5018043  48.1599293
  30.2107633  17.6956113  49.1878233  31.2268863  20.3753803  49.7468083
  30.8982223  19.5605563  49.3669813  32.1751163  20.3323613  49.6233773
  33.6803473  36.1465843  46.7205653  33.2206443  36.8981653  46.3463673
  33.0515933  35.4272313  46.6620453  20.5054093  32.2409083  49.1104373
  19.7788153  31.6214373  49.0430323  20.5663243  32.6349693  48.2402453
  24.1099193  34.4554083  45.8953783  24.6264213  33.8441443  45.3702043
  24.7596573  34.9582863  46.3864793  26.8494693  35.3462573  46.7222763
  27.1372503  35.0916873  45.8455773  27.3617913  34.7939933  47.3128333
  28.0671703  19.0852773  47.3019273  27.2843493  19.5598273  47.5816033
  27.7734633  18.1807603  47.1932453  32.6192773  19.7875873  45.3468363
  33.0600863  19.7320973  44.4989963  32.3500363  20.7033883  45.4178543
  34.4831343  19.4191113  43.3577183  34.4219743  18.4752333  43.2108203
  35.2623373  19.5271203  43.9030643  18.7884093  35.5583473  42.3201133
  18.6206133  34.9254153  43.0183023  17.9218603  35.7642873  41.9695323
  19.4112113  19.3900253  39.8232993  20.1691473  19.5029133  39.2497023
  18.9489283  20.2269453  39.7776423  25.9525923  21.5039523  42.8135303
  25.1400433  21.1296413  42.4731183  26.4567563  20.7484603  43.1156493
  30.4550903  18.1681973  44.0518373  31.0580273  18.7402183  44.5266893
  29.7143893  18.7321413  43.8292273  33.5985503  18.5703533  39.3258653
  33.7936133  19.4686983  39.5926083  32.8115373  18.3390613  39.8191603
  20.3946793  34.2516703  39.7651273  19.8694413  34.6324733  39.0613233
  20.3191373  34.8767473  40.4860983  21.7837263  19.9164303  38.3634963
  22.3130023  19.1294103  38.2342913  22.4165583  20.5955493  38.5970493
  23.9775103  19.6539443  41.4180353  23.3477843  18.9526753  41.5850483
  23.4380243  20.4143573  41.2013513  26.9167053  36.2678673  54.0890963
  27.8434363  36.0322943  54.1326923  26.9017483  37.0950673  53.6076993
  24.1030663  18.9323423  53.8532843  23.8214933  19.4357023  53.0893663
  24.4850363  18.1345173  53.4874973  22.9939763  36.1999083  38.6400523
  23.7258583  35.9158363  38.0924413  23.2533433  35.9612363  39.5299903
  22.1554553  32.3163813  38.6446853  21.5263433  32.7848913  39.1932683
  22.2702383  31.4713033  39.0793043  30.7046123  18.3477003  54.4313313
  30.5911573  18.6671613  55.3264833  31.5215863  18.7489513  54.1350593
  33.4844613  35.4948533  53.9132003  34.2769933  34.9997763  53.7057963
  33.7777763  36.1738673  54.5207613  29.6104273  26.3669473  24.7948053
  29.5298323  25.4524083  24.5239763  29.1968693  26.8636543  24.0887763
  27.7422313  28.1448493  26.6757323  26.9664413  27.6648933  26.9655893
  28.3935243  27.4654143  26.5013483  21.7588143  28.4568303  27.5533083
  20.9273023  28.2017013  27.9529593  22.3669123  28.5279073  28.2891003
  31.7629743  32.5508683  25.4556453  31.3011273  31.7795923  25.7843623
  32.5755293  32.5774753  25.9608903  21.7389403  32.4908393  27.7491103
  22.0417443  31.6006133  27.5701323  22.4832993  33.0478613  27.5213353
  20.1680093  23.4170193  21.3375473  19.2796793  23.7586163  21.2355353
  20.4521283  23.2170513  20.4456303  18.1313103  26.0175843  27.2215173
  18.7029213  25.2498043  27.2218813  18.1314643  26.3164603  26.3121783
  27.9893053  34.8366693  25.0760443  27.3704493  35.2924193  24.5054883
  28.8444833  34.9918153  24.6750143  27.1831303  30.8205683  26.6827483
  27.1139583  29.8795623  26.5216613  27.9451163  30.9107093  27.2550053
  19.3737973  21.4260203  29.0084103  19.1940813  20.5285953  29.2886863
  18.9718053  21.9732073  29.6831053  28.2136473  23.6276063  26.9096413
  28.5901293  22.7547943  26.7970083  28.1155983  23.9634763  26.0186853
  22.3441483  22.0001693  22.3713853  22.4508233  22.9005423  22.6782613
  21.4333843  21.9519663  22.0808503  31.9960593  21.1226503  23.8424753
  32.8170213  20.6323073  23.8850233  32.0294673  21.7124163  24.5956593
  19.9924643  23.9220703  27.6166443  20.6734753  24.1859073  28.2353843
  19.6772693  23.0821573  27.9504453  24.1849213  24.9688063  26.7039033
  24.6927433  25.4669033  27.3444053  24.7162453  24.1923263  26.5278393
  36.2860143  23.1393253  30.4068383  35.5812313  23.5274963  29.8883493
  36.5518063  23.8343543  31.0089313  22.4685313  19.6086623  30.9702453
  22.4703753  20.1259013  30.1648353  21.6389623  19.1316803  30.9472383
  28.8556403  29.7205933  22.4692353  28.2373673  30.1855383  21.9055073
  29.3679653  30.4133413  22.8861863  23.7188163  29.2481803  29.1475953
  23.3857543  29.8750723  29.7897023  23.8954843  29.7743683  28.3677623
  32.2322073  23.0626883  26.6152293  31.5277643  23.3511773  27.1955403
  32.5934233  23.8726993  26.2551853  22.1500643  21.3196583  28.9772903
  22.4917453  22.1638633  28.6826773  21.2116453  21.4680323  29.0938243
  22.9307263  31.2162603  30.9625133  23.5481263  31.8913683  30.6809583
  22.0700383  31.6250583  30.8712633  18.2239603  30.4062463  19.8431983
  17.8467583  30.8949563  19.1116883  18.4812673  31.0787743  20.4738513
  33.8484853  32.6802013  28.8779773  33.1648373  33.3501123  28.8696443
  34.3879143  32.8782663  28.1124633  35.3008993  22.5081673  27.0061503
  34.3533903  22.5420653  27.1376933  35.6258983  23.3220623  27.3910863
  25.8328533  18.8078853  25.3017493  26.1403513  18.2525743  24.5852993
  24.9029233  18.9423313  25.1190483  31.3843593  34.5246143  27.5924953
  31.3970753  34.1208433  26.7247213  30.8318813  35.2993433  27.4886383
  32.6789013  31.2462363  22.6815123  32.5685343  30.3036693  22.8064543
  32.6757263  31.6078003  23.5677883  30.7829033  29.4275983  28.9207563
  31.1997823  29.2136093  28.0861023  31.5068853  29.6848773  29.4916183
  28.2209293  26.8727683  22.0377613  27.2938573  26.8065063  22.2666083
  28.3734113  27.8107813  21.9232853  28.2078373  23.1444683  19.0344773
  27.2682043  23.3058643  19.1197233  28.5261633  23.8630363  18.4880763
  34.7291133  27.8263203  29.0123803  33.9009763  27.8956293  28.5373933
  35.3241613  28.4117513  28.5439633  32.2506583  28.4347983  22.5412863
  31.6319003  28.0967533  21.8939163  32.2331033  27.7907743  23.2492053
  31.6933143  24.6132523  29.9578673  31.2804323  25.4386233  30.2118663
  30.9609093  24.0277563  29.7655033  23.8265933  27.3992423  24.8197343
  23.4222933  26.6869673  24.3243243  23.9129053  27.0545663  25.7085383
  24.2947633  31.0859983  26.9836553  23.9975923  30.4805453  26.3044333
  25.2447453  31.1237293  26.8725913  22.5394553  24.1735633  28.5996383
  23.0909143  24.2830973  27.8249633  23.0538063  24.5473233  29.3151613
  32.3833243  34.6591853  30.6459653  31.9063803  35.4664043  30.4532263
  31.6995033  34.0070183  30.7985863  23.3866063  30.8241673  33.6344353
  22.4894593  31.0481643  33.8817753  23.4118933  30.9476613  32.6855753
  30.4271283  27.6734793  19.5485613  30.8664563  26.8357223  19.4023433
  31.1399703  28.3064193  19.6349753  22.2137283  27.6954993  32.2101723
  22.0745053  28.5677793  32.5789123  21.3318643  27.3527803  32.0649663
  28.5366663  32.6130863  23.5166853  28.9762573  33.3555193  23.1022243
  28.4753553  32.8557433  24.4405813  24.0117633  33.6376693  34.4186873
  23.9833063  34.0419643  33.5515303  23.8482603  32.7087053  34.2558473
  34.0088423  18.9277603  17.8626653  33.6961083  19.0204433  18.7625723
  34.7700893  19.5058633  17.8124083  20.5270563  26.2937403  22.3203993
  20.4068163  27.0199493  21.7085263  20.2171453  25.5240313  21.8431903
  18.1655933  29.4652543  28.1272633  18.2436353  29.6001313  27.1828353
  18.7797613  28.7568433  28.3200753  19.4103563  31.1652733  24.5378813
  19.0031643  31.3067323  23.6832413  20.3016573  30.8812893  24.3350023
  29.2282443  35.3144643  31.4445863  29.7427113  35.2252653  32.2468293
  28.3851523  35.6604343  31.7373773  31.2036843  35.5999983  20.8729863
  31.0437983  35.3102923  21.7711693  31.0383553  34.8240113  20.3375093
  23.6825223  35.3798513  22.6501483  23.5067703  34.4634053  22.4369283
  22.8280963  35.7385803  22.8899283  30.9062973  33.1087543  19.4327863
  30.2128133  33.1064833  18.7730143  31.6485833  32.6846863  19.0022033
  30.4712903  34.7350253  23.5076353  30.9269853  33.9539633  23.8214973
  30.8105423  35.4457073  24.0517533  35.2189713  23.6649103  33.8400793
  34.6033983  24.1728773  33.3116253  34.8986133  22.7647433  33.7826733
  18.2215453  30.5066713  30.6667093  18.3846493  30.0372073  29.8486463
  18.6867903  29.9990273  31.3315933  22.9934223  19.6372473  25.7027663
  22.5502373  20.4182013  25.3712183  23.5519213  19.9602363  26.4098603
  27.2804033  22.5040993  31.3062983  26.8183403  22.7124013  32.1182923
  26.8782143  21.6900343  31.0033653  32.2808543  23.7249943  32.4359643
  31.4302133  23.4255693  32.7568713  32.1210333  23.9691953  31.5243463
  29.3758253  25.2251693  34.5358433  29.7011663  24.3915443  34.1960663
  30.1638583  25.7480213  34.6836763  26.1093043  19.2583173  20.5833493
  25.4847223  19.2543043  21.3086803  26.0223163  18.3914133  20.1869463
  25.0310123  20.1819803  27.5617263  25.3282453  21.0882633  27.4809283
  25.5795683  19.6938583  26.9476833  22.7848443  24.7606043  23.4308913
  22.5589363  24.5443213  24.3355533  22.0040973  25.1934503  23.0854883
  30.0146203  24.7669413  22.0299563  29.4155093  25.4905213  21.8463183
  30.5625813  24.7046193  21.2476013  25.2247653  25.6591623  34.0969183
  25.1291253  24.7186353  33.9469583  26.0679633  25.8806693  33.7017253
  28.6211073  23.4032953  24.0602843  29.0140643  23.7205153  23.2471533
  28.9827923  22.5244833  24.1747363  20.3558193  22.0705293  32.2502963
  19.9621583  22.9180503  32.4575743  19.6676593  21.4331663  32.4411603
  26.9303243  22.1540263  35.3199703  26.2401563  21.9612463  35.9545793
  27.6735543  22.4374903  35.8524003  17.6575243  19.9933753  26.2833043
  17.3688293  20.5636613  26.9958023  18.4021003  19.5138203  26.6464273
  17.8445473  23.9353873  17.4935763  17.7620143  24.8784633  17.6350753
  17.4928533  23.7928783  16.6148113  29.2066213  25.9938703  28.1553623
  28.4747333  26.5025513  28.5043723  28.8090553  25.1768683  27.8542403
  25.6443603  22.6692903  26.5606113  25.6479663  22.2282853  25.7110653
  26.5394723  22.9910233  26.6677933  21.4945983  22.5519393  25.5200323
  21.1546033  23.0294623  26.2767373  20.7323303  22.0984513  25.1601423
  25.7063753  23.6704983  19.5512873  25.8276573  23.6291463  20.4998693
  25.3212263  24.5329133  19.3959603  29.6692123  21.4472383  27.5676563
  29.6864863  21.8981033  28.4118413  29.4207703  20.5478023  27.7810003
  24.7185253  25.9806123  18.9496173  24.1502153  25.5324373  18.3232083
  25.4274253  26.3398903  18.4161323  33.0962873  18.8604563  33.4062943
  33.4208643  18.1294223  33.9320923  33.1319383  18.5418203  32.5043933
  19.7954433  29.8818143  32.8262903  19.4109223  29.2411813  33.4245863
  20.1066623  30.5854263  33.3957633  25.9451573  26.7294683  28.3071523
  26.3121703  26.2553253  29.0532863  25.7556633  27.6036253  28.6479863
  18.8092063  21.4738373  24.4364993  18.5238983  21.1094043  25.2743613
  18.7470923  20.7418833  23.8228133  23.7350943  25.7703323  30.6255733
  23.4308013  26.6495303  30.8506093  24.6897403  25.8303113  30.6613173
  22.2632733  29.9764313  21.2222583  21.4894993  29.4361933  21.0621303
  22.9927363  29.4570923  20.8840343  33.0220713  28.9729673  27.0148973
  33.7419833  29.4684963  26.6245083  32.8202533  28.2947563  26.3702843
  28.4830653  20.3667633  21.1578363  27.6695263  19.8680803  21.0823673
  28.2892603  21.2065883  20.7414713  28.4039513  29.0438733  32.9017973
  28.3376823  28.1234403  32.6475563  27.7744653  29.1414173  33.6162613
  31.1979043  24.7387283  19.4540523  32.0858663  25.0504513  19.2791863
  31.1684133  23.8659533  19.0621103  22.3070133  29.6444693  24.8601393
  22.8248803  28.8412953  24.8058283  21.8554153  29.5823833  25.7018223
  27.1939633  30.9110973  20.1328693  27.5355333  31.6553203  19.6372013
  26.3652343  31.2242093  20.4953523  19.7914673  26.6106063  31.7727093
  19.4329613  27.2759913  32.3600433  19.4969233  25.7789613  32.1439713
  22.9927793  27.0690303  34.6566643  22.6927933  27.2147483  33.7594463
  23.7639033  26.5095593  34.5640033  28.3356243  31.8659303  32.6521773
  28.3500783  30.9340263  32.4340683  27.6281343  31.9519063  33.2911543
  33.4693313  26.0499123  18.9220383  33.3857033  26.4813343  18.0716823
  34.1887503  26.5097473  19.3547203  34.5467453  28.5066643  31.9990353
  33.8215643  29.0995423  31.8019743  35.0742913  28.4990183  31.2003723
  34.4980563  32.9041383  21.6502513  33.8556723  32.2497003  21.9246233
  34.1111223  33.3096473  20.8743183  30.0767043  30.2326813  25.4974203
  30.4290863  29.6354943  24.8375573  29.1929373  29.9071043  25.6682453
  26.1630323  30.9924503  22.9044613  26.8501453  31.5393713  23.2852203
  25.3762743  31.5365233  22.9394223  18.3022723  26.6097323  18.3961693
  19.1717573  26.8922123  18.6797613  17.8113043  27.4233193  18.2810503
  25.4657533  27.9970533  22.5169973  25.9220313  28.8075783  22.7430163
  25.1145743  27.6793673  23.3488463  27.7690143  33.5076873  29.7462273
  28.4132363  33.7136253  30.4235693  28.1319583  32.7465273  29.2933123
  21.3669313  18.3408183  22.9892493  21.2383943  18.3326083  23.9377413
  20.5431333  18.6791273  22.6383503  29.0422223  31.5109223  28.4639723
  29.6844453  30.8102383  28.5771893  29.5671573  32.2907663  28.2836613
  32.8877943  31.7957843  18.1878863  32.6615523  31.0788283  18.7803503
  32.4974143  31.5470283  17.3500613  30.8159843  32.3104123  31.6675783
  31.1516083  32.8970813  32.3453703  29.8960183  32.1796833  31.8973573
  18.6693973  35.8224703  18.9623323  19.0291613  36.4214043  18.3080593
  18.5286313  36.3684593  19.7358353  18.3663243  20.0999303  32.4499193
  17.6521763  20.2996223  33.0551803  18.7858283  19.3238873  32.8213993
  32.4694193  29.7129783  19.8493023  32.1815893  30.1742473  20.6370903
  33.2646363  29.2527553  20.1177243  18.6535833  34.0879563  33.4365723
  18.7626953  33.1474303  33.2961113  18.0016393  34.3534313  32.7879453
  26.6448423  32.3595453  34.8363843  26.3245293  31.6404693  35.3809533
  25.9706783  33.0350523  34.9099903  24.6862593  33.2055903  19.7796993
  24.6772693  33.9385593  19.1641503  23.7660953  32.9587483  19.8723953
  20.2869233  28.4270793  20.5243753  19.6797183  29.1669693  20.5339053
  20.7618583  28.5170153  19.6981953  29.8602023  22.5921613  30.2000643
  30.2282843  21.7716823  30.5280213  29.0000223  22.6523503  30.6156293
  33.2264053  21.5478553  21.0088203  32.5977213  21.6524223  20.2946433
  32.7315973  21.7675333  21.7982083  27.6722193  33.2684143  18.4422183
  27.7734173  33.0648133  17.5124163  26.7723933  33.0142423  18.6469963
  25.1948083  23.8264503  22.4246083  24.4864233  24.2950843  22.8659693
  25.4792563  23.1686513  23.0591273  26.8204013  25.2461203  30.4238613
  27.3189263  25.7207023  31.0890463  26.9626963  24.3224723  30.6308643
  29.2263513  20.5515163  23.8641873  29.1031293  20.5701293  22.9151383
  30.1748073  20.5994103  23.9840273  26.3140303  35.7870463  23.1369853
  26.5681803  35.7491853  22.2149223  25.3652783  35.6603793  23.1298103
  23.3983103  22.1349583  19.7996793  24.2473633  22.5719733  19.7336983
  23.0314373  22.4469843  20.6268853  34.0270873  21.4629163  31.2667003
  33.5244473  22.2034563  31.6060813  34.8427533  21.8513163  30.9503793
  32.3192883  26.7062343  24.7128363  31.3783023  26.7212573  24.8876053
  32.6336953  25.9198303  25.1588663  22.2974523  28.3881943  18.2732323
  23.0637793  28.2763303  18.8357753  22.3749213  27.6919913  17.6209093
  20.9921283  25.8207013  18.9565213  21.0724873  24.8734523  19.0682613
  21.8841033  26.1513893  19.0625873  34.3218463  33.8771193  26.3882623
  34.4465883  34.7002363  26.8606433  35.1884023  33.6661923  26.0406773
  21.7935993  35.9702403  26.0599753  22.5298473  35.4217863  26.3308323
  22.1776913  36.8358413  25.9205743  18.6781473  32.0375973  21.9341263
  17.7521253  32.2797113  21.9246673  19.1437903  32.8650233  21.8126013
  20.7994273  35.1548473  35.2485333  21.6007003  35.4760523  35.6620733
  20.2846093  34.7944053  35.9705243  24.9038303  35.1432713  17.8825323
  25.6966913  35.4321543  17.4307113  24.3842653  34.7124883  17.2037803
  29.6358903  31.2628343  35.1960743  29.0297063  31.2859943  34.4556493
  29.3313013  30.5311383  35.7327993  31.0659273  34.9908633  33.8070153
  32.0181023  34.9066653  33.7570393  30.9187493  35.6550343  34.4803943
  33.9568473  34.3702843  19.3062063  33.6709983  33.9567983  18.4916243
  33.7588023  35.2990553  19.1862583  18.5192083  27.6421933  34.1921383
  19.0231103  27.0629213  34.7637613  17.7799503  27.9262163  34.7297753
  25.4215703  30.3636123  17.7467673  25.3166343  29.7488473  18.4729053
  25.2539923  29.8402013  16.9630683  25.5730023  29.0492923  33.7256903
  24.8075693  29.6177923  33.6411573  25.7545983  28.7569133  32.8325133
  28.6618433  29.4256153  18.3509663  28.1128533  29.8725453  18.9952403
  29.2837693  28.9205403  18.8747333  32.7153373  30.7798253  34.2831923
  33.4562843  31.1174013  33.7799383  31.9526053  30.9490313  33.7301693
  20.5515163  25.7851523  35.0871453  20.5920503  25.4865393  35.9956683
  21.4060663  26.1859133  34.9278973  24.3293553  28.3847073  20.2474963
  24.7509973  28.2186943  21.0906353  24.4544393  27.5747303  19.7530103
  22.4920973  24.3643623  33.0545943  21.9617433  23.8734573  32.4269283
  23.1609043  24.7927823  32.5203873  26.8421193  27.4084683  17.4952063
  27.3626853  26.6933703  17.1293213  27.4889593  28.0470553  17.7952573
  31.3899033  28.8313083  32.8187133  31.8040053  28.9858163  33.6677553
  30.4550033  28.9568303  32.9812913  31.8621203  26.1709243  34.8226283
  32.4441973  25.4161563  34.7346763  32.0382973  26.7016683  34.0457763
  22.9793273  21.3305993  33.1343233  22.8850143  20.7126743  32.4094103
  22.3990663  22.0572283  32.9073143  25.7454713  19.8879233  30.1670623
  25.2972013  19.9103493  29.3216173  25.1119913  19.4898253  30.7640923
  26.1514263  28.7833563  30.7883063  26.5702373  29.6266293  30.6159303
  25.2322893  28.9205603  30.5589843  28.4878163  26.5149743  32.1720903
  28.6074373  25.9190883  32.9115743  29.3472163  26.5519433  31.7522203
  30.8266063  27.0686933  30.7483413  30.3001283  27.5929553  30.1448553
  31.1697403  27.7014323  31.3793143  23.2252453  24.4580303  17.1933123
  23.0241513  23.5947663  17.5546463  23.0544503  24.3713663  16.2554723
  24.0021683  35.0886573  31.9040793  23.4642773  35.8132633  31.5849493
  24.2555643  34.6116913  31.1138133  25.2546933  23.0571093  33.4296723
  25.8446623  22.7486943  34.1174543  24.4367173  22.5850843  33.5856623
  30.0740363  22.6736903  33.6629743  29.3855883  22.0118443  33.5979733
  30.7946383  22.2275173  34.1078203  30.7040763  19.2688533  19.7220003
  30.9843053  18.4256433  20.0779423  29.9306493  19.5011643  20.2358753
  22.0235253  21.5580923  17.1811003  22.3261153  21.5648353  16.2730153
  22.7629843  21.2078783  17.6778663  26.8583893  36.3237783  32.1627443
  26.7842593  37.2272923  32.4699813  25.9562733  36.0049683  32.1349513
  25.2420183  20.5015543  18.1667203  24.8942183  19.8239533  17.5869653
  25.4432953  20.0405053  18.9810593  27.4069223  35.4896293  19.7853803
  28.3020013  35.8281263  19.8072563  27.4386853  34.7675703  19.1578083
  21.0465383  30.8623343  18.0140803  21.4840253  31.4053013  18.6698383
  21.5313113  30.0370293  18.0237143  18.2611183  33.6512373  25.4661063
  18.5914193  32.7833433  25.2339703  18.6902183  33.8570893  26.2966023
  22.8573103  31.9821383  23.1263033  22.5568643  31.8586353  24.0266943
  22.7510593  31.1229973  22.7178763  18.7501393  34.5182963  28.2042693
  18.3132383  34.6983763  29.0366843  19.3179073  35.2757583  28.0624413
  35.6265023  31.7617783  17.8289713  34.7957983  31.8294433  18.2996943
  35.8036853  32.6521903  17.5256573  35.0821483  28.5065263  20.3323913
  35.8440393  29.0761913  20.4383603  35.0975853  27.9392463  21.1032223
  18.5825823  27.0303193  24.5631573  17.9274663  26.7614833  23.9191273
  19.4203773  26.9207673  24.1133553  36.0881453  29.3615363  25.1765843
  36.4590283  28.5782683  24.7701813  36.7283383  30.0504463  24.9983143
  33.0715213  30.7451943  30.5896163  32.2575053  31.1749103  30.8521953
  33.4789413  31.3570353  29.9765213  35.1340653  28.7999633  17.4896433
  35.4089493  29.7078513  17.3615653  34.9451393  28.7362163  18.4258423
  31.5316263  21.8244483  18.7850063  31.9501143  21.6375463  17.9446723
  31.2252323  20.9723533  19.0952993  35.0305993  26.7368623  22.4825863
  34.6549593  25.9696553  22.0507153  34.3009113  27.1191323  22.9700793
  19.6201753  27.4155763  29.1034913  19.9874793  27.3283163  29.9830933
  19.0512573  26.6522313  29.0041773  34.4205613  25.8840143  32.1165383
  34.1891703  25.6552893  31.2163333  34.6810163  26.8039693  32.0710273
  19.1717753  24.3264853  33.0093333  18.2773803  24.2931613  33.3487043
  19.7115303  24.5251643  33.7744583  32.8593683  21.1096573  34.8945083
  33.7363863  21.1179973  35.2779083  32.8714523  20.3727413  34.2837433
  17.7963903  24.2402123  20.5056903  16.8927983  24.5032323  20.3308563
  18.2804523  24.5113293  19.7256863  34.3056953  24.9626113  25.7833103
  34.8294433  24.4688763  25.1523273  34.8916373  25.0976473  26.5280673
  34.4846673  25.0465983  29.3052653  33.5349383  25.0129523  29.4197643
  34.6659683  25.9566093  29.0702423  20.3391113  23.2967663  18.4151283
  21.0482813  22.8750883  17.9298563  19.6231053  23.3642893  17.7834633
  19.9865273  19.3506993  17.4553933  20.7093403  19.8915933  17.7735153
  20.2589793  19.0770413  16.5795473  33.7956923  24.2199463  21.7225513
  34.2916043  23.9870333  22.5074393  33.5972993  23.3811303  21.3063153
  19.6757463  18.6013183  27.3576553  20.3233653  18.0510563  26.9171713
  20.0959303  18.8556333  28.1792363  35.2244083  22.8560413  24.2563193
  35.1143363  22.7016453  25.1945463  35.9851673  22.3281353  24.0138603
  33.5709803  18.7954543  30.7146193  34.2082023  19.4088683  31.0805383
  33.7184693  18.8315203  29.7695423  36.1134353  20.6868333  17.4969333
  37.0383663  20.5549513  17.2887623  36.0910143  20.7661153  18.4505783
  36.1872843  21.4578993  20.1226043  35.3924343  21.3924113  20.6518953
  36.3916123  22.3929633  20.1111393  33.1291263  35.4970543  24.1164433
  33.7250333  35.1755113  23.4398853  33.3869413  35.0242363  24.9077703
  19.4289463  18.7568853  30.1001873  19.0804283  19.2132673  30.8660053
  19.0977163  17.8625983  30.1824303  21.0353833  31.9288453  34.2655063
  20.9923463  31.5581363  35.1469523  21.1664843  32.8666023  34.4056883
  24.7359863  33.4848043  29.8664783  24.4951223  33.7522603  28.9795303
  25.6762503  33.6553773  29.9215643  26.9414283  19.9480733  33.6221293
  26.8803173  20.5402563  34.3716703  27.8814663  19.8406693  33.4771553
  29.5788843  19.6050793  33.2613583  30.1929253  19.9230083  32.5994663
  30.1238403  19.1199383  33.8809443  20.1010103  18.2845053  33.3752643
  20.6493093  18.1033103  32.6118753  20.1665413  17.4939163  33.9108953
  20.8741863  34.8750703  31.3852843  20.2802183  34.7435403  32.1242883
  20.8665703  34.0388843  30.9194943  30.3196883  18.1682933  29.5882873
  29.4456723  18.5018043  29.3855803  30.2107633  17.6956113  30.4134743
  31.2268863  20.3753803  30.9724593  30.8982223  19.5605563  30.5926323
  32.1751163  20.3323613  30.8490283  33.6803473  36.1465843  27.9462163
  33.2206443  36.8981653  27.5720183  33.0515933  35.4272313  27.8876963
  20.5054093  32.2409083  30.3360883  19.7788153  31.6214373  30.2686833
  20.5663243  32.6349693  29.4658963  24.1099193  34.4554083  27.1210293
  24.6264213  33.8441443  26.5958553  24.7596573  34.9582863  27.6121303
  26.8494693  35.3462573  27.9479273  27.1372503  35.0916873  27.0712283
  27.3617913  34.7939933  28.5384843  28.0671703  19.0852773  28.5275783
  27.2843493  19.5598273  28.8072543  27.7734633  18.1807603  28.4188963
  32.6192773  19.7875873  26.5724873  33.0600863  19.7320973  25.7246473
  32.3500363  20.7033883  26.6435053  34.4831343  19.4191113  24.5833693
  34.4219743  18.4752333  24.4364713  35.2623373  19.5271203  25.1287153
  18.7884093  35.5583473  23.5457643  18.6206133  34.9254153  24.2439533
  17.9218603  35.7642873  23.1951833  19.4112113  19.3900253  21.0489503
  20.1691473  19.5029133  20.4753533  18.9489283  20.2269453  21.0032933
  25.9525923  21.5039523  24.0391813  25.1400433  21.1296413  23.6987693
  26.4567563  20.7484603  24.3413003  30.4550903  18.1681973  25.2774883
  31.0580273  18.7402183  25.7523403  29.7143893  18.7321413  25.0548783
  33.5985503  18.5703533  20.5515163  33.7936133  19.4686983  20.8182593
  32.8115373  18.3390613  21.0448113  20.3946793  34.2516703  20.9907783
  19.8694413  34.6324733  20.2869743  20.3191373  34.8767473  21.7117493
  21.7837263  19.9164303  19.5891473  22.3130023  19.1294103  19.4599423
  22.4165583  20.5955493  19.8227003  23.9775103  19.6539443  22.6436863
  23.3477843  18.9526753  22.8106993  23.4380243  20.4143573  22.4270023
  26.9167053  36.2678673  35.3147473  27.8434363  36.0322943  35.3583433
  26.9017483  37.0950673  34.8333503  35.1512113  35.8104243  22.3121723
  35.3264303  35.1241983  21.6682643  34.4533683  36.3351293  21.9198393
  24.1030663  18.9323423  35.0789353  23.8214933  19.4357023  34.3150173
  24.4850363  18.1345173  34.7131483  22.9939763  36.1999083  19.8657033
  23.7258583  35.9158363  19.3180923  23.2533433  35.9612363  20.7556413
  22.1554553  32.3163813  19.8703363  21.5263433  32.7848913  20.4189193
  22.2702383  31.4713033  20.3049553  30.7046123  18.3477003  35.6569823
  30.5911573  18.6671613  36.5521343  31.5215863  18.7489513  35.3607103
  29.6104273  26.3669473   6.0204563  29.5298323  25.4524083   5.7496273
  29.1968693  26.8636543   5.3144273  27.7422313  28.1448493   7.9013833
  26.9664413  27.6648933   8.1912403  28.3935243  27.4654143   7.7269993
  21.7588143  28.4568303   8.7789593  20.9273023  28.2017013   9.1786103
  22.3669123  28.5279073   9.5147513  31.7629743  32.5508683   6.6812963
  31.3011273  31.7795923   7.0100133  32.5755293  32.5774753   7.1865413
  21.7389403  32.4908393   8.9747613  22.0417443  31.6006133   8.7957833
  22.4832993  33.0478613   8.7469863  18.1313103  26.0175843   8.4471683
  18.7029213  25.2498043   8.4475323  18.1314643  26.3164603   7.5378293
  27.9893053  34.8366693   6.3016953  27.3704493  35.2924193   5.7311393
  28.8444833  34.9918153   5.9006653  27.1831303  30.8205683   7.9083993
  27.1139583  29.8795623   7.7473123  27.9451163  30.9107093   8.4806563
  19.3737973  21.4260203  10.2340613  19.1940813  20.5285953  10.5143373
  18.9718053  21.9732073  10.9087563  28.2136473  23.6276063   8.1352923
  28.5901293  22.7547943   8.0226593  28.1155983  23.9634763   7.2443363
  22.3441483  22.0001693   3.5970363  22.4508233  22.9005423   3.9039123
  21.4333843  21.9519663   3.3065013  31.9960593  21.1226503   5.0681263
  32.8170213  20.6323073   5.1106743  32.0294673  21.7124163   5.8213103
  19.9924643  23.9220703   8.8422953  20.6734753  24.1859073   9.4610353
  19.6772693  23.0821573   9.1760963  24.1849213  24.9688063   7.9295543
  24.6927433  25.4669033   8.5700563  24.7162453  24.1923263   7.7534903
  36.2860143  23.1393253  11.6324893  35.5812313  23.5274963  11.1140003
  36.5518063  23.8343543  12.2345823  22.4685313  19.6086623  12.1958963
  22.4703753  20.1259013  11.3904863  21.6389623  19.1316803  12.1728893
  28.8556403  29.7205933   3.6948863  28.2373673  30.1855383   3.1311583
  29.3679653  30.4133413   4.1118373  23.7188163  29.2481803  10.3732463
  23.3857543  29.8750723  11.0153533  23.8954843  29.7743683   9.5934133
  32.2322073  23.0626883   7.8408803  31.5277643  23.3511773   8.4211913
  32.5934233  23.8726993   7.4808363  22.1500643  21.3196583  10.2029413
  22.4917453  22.1638633   9.9083283  21.2116453  21.4680323  10.3194753
  22.9307263  31.2162603  12.1881643  23.5481263  31.8913683  11.9066093
  22.0700383  31.6250583  12.0969143  33.8484853  32.6802013  10.1036283
  33.1648373  33.3501123  10.0952953  34.3879143  32.8782663   9.3381143
  35.3008993  22.5081673   8.2318013  34.3533903  22.5420653   8.3633443
  35.6258983  23.3220623   8.6167373  25.8328533  18.8078853   6.5274003
  26.1403513  18.2525743   5.8109503  24.9029233  18.9423313   6.3446993
  31.3843593  34.5246143   8.8181463  31.3970753  34.1208433   7.9503723
  30.8318813  35.2993433   8.7142893  32.6789013  31.2462363   3.9071633
  32.5685343  30.3036693   4.0321053  32.6757263  31.6078003   4.7934393
  30.7829033  29.4275983  10.1464073  31.1997823  29.2136093   9.3117533
  31.5068853  29.6848773  10.7172693  28.2209293  26.8727683   3.2634123
  27.2938573  26.8065063   3.4922593  28.3734113  27.8107813   3.1489363
  34.7291133  27.8263203  10.2380313  33.9009763  27.8956293   9.7630443
  35.3241613  28.4117513   9.7696143  32.2506583  28.4347983   3.7669373
  31.6319003  28.0967533   3.1195673  32.2331033  27.7907743   4.4748563
  31.6933143  24.6132523  11.1835183  31.2804323  25.4386233  11.4375173
  30.9609093  24.0277563  10.9911543  23.8265933  27.3992423   6.0453853
  23.4222933  26.6869673   5.5499753  23.9129053  27.0545663   6.9341893
  24.2947633  31.0859983   8.2093063  23.9975923  30.4805453   7.5300843
  25.2447453  31.1237293   8.0982423  22.5394553  24.1735633   9.8252893
  23.0909143  24.2830973   9.0506143  23.0538063  24.5473233  10.5408123
  32.3833243  34.6591853  11.8716163  31.9063803  35.4664043  11.6788773
  31.6995033  34.0070183  12.0242373  23.3866063  30.8241673  14.8600863
  22.4894593  31.0481643  15.1074263  23.4118933  30.9476613  13.9112263
  22.2137283  27.6954993  13.4358233  22.0745053  28.5677793  13.8045633
  21.3318643  27.3527803  13.2906173  28.5366663  32.6130863   4.7423363
  28.9762573  33.3555193   4.3278753  28.4753553  32.8557433   5.6662323
  24.0117633  33.6376693  15.6443383  23.9833063  34.0419643  14.7771813
  23.8482603  32.7087053  15.4814983  20.5270563  26.2937403   3.5460503
  20.4068163  27.0199493   2.9341773  20.2171453  25.5240313   3.0688413
  35.9632453  34.4203793  16.9407553  36.4392173  34.8986683  17.6196633
  36.5839613  34.3521283  16.2153053  18.1655933  29.4652543   9.3529143
  18.2436353  29.6001313   8.4084863  18.7797613  28.7568433   9.5457263
  19.4103563  31.1652733   5.7635323  19.0031643  31.3067323   4.9088923
  20.3016573  30.8812893   5.5606533  35.3665703  31.6116643  14.1007563
  35.4928763  31.3728523  13.1824743  35.4087083  30.7801183  14.5729643
  29.2282443  35.3144643  12.6702373  29.7427113  35.2252653  13.4724803
  28.3851523  35.6604343  12.9630283  23.6825223  35.3798513   3.8757993
  23.5067703  34.4634053   3.6625793  22.8280963  35.7385803   4.1155793
  30.4712903  34.7350253   4.7332863  30.9269853  33.9539633   5.0471483
  30.8105423  35.4457073   5.2774043  35.2189713  23.6649103  15.0657303
  34.6033983  24.1728773  14.5372763  34.8986133  22.7647433  15.0083243
  18.2215453  30.5066713  11.8923603  18.3846493  30.0372073  11.0742973
  18.6867903  29.9990273  12.5572443  22.9934223  19.6372473   6.9284173
  22.5502373  20.4182013   6.5968693  23.5519213  19.9602363   7.6355113
  27.2804033  22.5040993  12.5319493  26.8183403  22.7124013  13.3439433
  26.8782143  21.6900343  12.2290163  32.2808543  23.7249943  13.6616153
  31.4302133  23.4255693  13.9825223  32.1210333  23.9691953  12.7499973
  29.3758253  25.2251693  15.7614943  29.7011663  24.3915443  15.4217173
  30.1638583  25.7480213  15.9093273  25.0310123  20.1819803   8.7873773
  25.3282453  21.0882633   8.7065793  25.5795683  19.6938583   8.1733343
  22.7848443  24.7606043   4.6565423  22.5589363  24.5443213   5.5612043
  22.0040973  25.1934503   4.3111393  30.0146203  24.7669413   3.2556073
  29.4155093  25.4905213   3.0719693  30.5625813  24.7046193   2.4732523
  25.2247653  25.6591623  15.3225693  25.1291253  24.7186353  15.1726093
  26.0679633  25.8806693  14.9273763  28.6211073  23.4032953   5.2859353
  29.0140643  23.7205153   4.4728043  28.9827923  22.5244833   5.4003873
  20.3558193  22.0705293  13.4759473  19.9621583  22.9180503  13.6832253
  19.6676593  21.4331663  13.6668113  26.9303243  22.1540263  16.5456213
  26.2401563  21.9612463  17.1802303  27.6735543  22.4374903  17.0780513
  17.6575243  19.9933753   7.5089553  17.3688293  20.5636613   8.2214533
  18.4021003  19.5138203   7.8720783  29.2066213  25.9938703   9.3810133
  28.4747333  26.5025513   9.7300233  28.8090553  25.1768683   9.0798913
  25.6443603  22.6692903   7.7862623  25.6479663  22.2282853   6.9367163
  26.5394723  22.9910233   7.8934443  21.4945983  22.5519393   6.7456833
  21.1546033  23.0294623   7.5023883  20.7323303  22.0984513   6.3857933
  29.6692123  21.4472383   8.7933073  29.6864863  21.8981033   9.6374923
  29.4207703  20.5478023   9.0066513  33.0962873  18.8604563  14.6319453
  33.4208643  18.1294223  15.1577433  33.1319383  18.5418203  13.7300443
  19.7954433  29.8818143  14.0519413  19.4109223  29.2411813  14.6502373
  20.1066623  30.5854263  14.6214143  25.9451573  26.7294683   9.5328033
  26.3121703  26.2553253  10.2789373  25.7556633  27.6036253   9.8736373
  18.8092063  21.4738373   5.6621503  18.5238983  21.1094043   6.5000123
  18.7470923  20.7418833   5.0484643  23.7350943  25.7703323  11.8512243
  23.4308013  26.6495303  12.0762603  24.6897403  25.8303113  11.8869683
  22.2632733  29.9764313   2.4479093  21.4894993  29.4361933   2.2877813
  22.9927363  29.4570923   2.1096853  33.0220713  28.9729673   8.2405483
  33.7419833  29.4684963   7.8501593  32.8202533  28.2947563   7.5959353
  28.4830653  20.3667633   2.3834873  27.6695263  19.8680803   2.3080183
  28.2892603  21.2065883   1.9671223  28.4039513  29.0438733  14.1274483
  28.3376823  28.1234403  13.8732073  27.7744653  29.1414173  14.8419123
  22.3070133  29.6444693   6.0857903  22.8248803  28.8412953   6.0314793
  21.8554153  29.5823833   6.9274733  19.7914673  26.6106063  12.9983603
  19.4329613  27.2759913  13.5856943  19.4969233  25.7789613  13.3696223
  22.9927793  27.0690303  15.8823153  22.6927933  27.2147483  14.9850973
  23.7639033  26.5095593  15.7896543  28.3356243  31.8659303  13.8778283
  28.3500783  30.9340263  13.6597193  27.6281343  31.9519063  14.5168053
  34.5467453  28.5066643  13.2246863  33.8215643  29.0995423  13.0276253
  35.0742913  28.4990183  12.4260233  34.4980563  32.9041383   2.8759023
  33.8556723  32.2497003   3.1502743  34.1111223  33.3096473   2.0999693
  30.0767043  30.2326813   6.7230713  30.4290863  29.6354943   6.0632083
  29.1929373  29.9071043   6.8938963  26.1630323  30.9924503   4.1301123
  26.8501453  31.5393713   4.5108713  25.3762743  31.5365233   4.1650733
  25.4657533  27.9970533   3.7426483  25.9220313  28.8075783   3.9686673
  25.1145743  27.6793673   4.5744973  27.7690143  33.5076873  10.9718783
  28.4132363  33.7136253  11.6492203  28.1319583  32.7465273  10.5189633
  21.3669313  18.3408183   4.2149003  21.2383943  18.3326083   5.1633923
  20.5431333  18.6791273   3.8640013  29.0422223  31.5109223   9.6896233
  29.6844453  30.8102383   9.8028403  29.5671573  32.2907663   9.5093123
  30.8159843  32.3104123  12.8932293  31.1516083  32.8970813  13.5710213
  29.8960183  32.1796833  13.1230083  18.3663243  20.0999303  13.6755703
  17.6521763  20.2996223  14.2808313  18.7858283  19.3238873  14.0470503
  18.6535833  34.0879563  14.6622233  18.7626953  33.1474303  14.5217623
  18.0016393  34.3534313  14.0135963  26.6448423  32.3595453  16.0620353
  26.3245293  31.6404693  16.6066043  25.9706783  33.0350523  16.1356413
  29.8602023  22.5921613  11.4257153  30.2282843  21.7716823  11.7536723
  29.0000223  22.6523503  11.8412803  25.1948083  23.8264503   3.6502593
  24.4864233  24.2950843   4.0916203  25.4792563  23.1686513   4.2847783
  26.8204013  25.2461203  11.6495123  27.3189263  25.7207023  12.3146973
  26.9626963  24.3224723  11.8565153  29.2263513  20.5515163   5.0898383
  29.1031293  20.5701293   4.1407893  30.1748073  20.5994103   5.2096783
  26.3140303  35.7870463   4.3626363  26.5681803  35.7491853   3.4405733
  25.3652783  35.6603793   4.3554613  34.0270873  21.4629163  12.4923513
  33.5244473  22.2034563  12.8317323  34.8427533  21.8513163  12.1760303
  32.3192883  26.7062343   5.9384873  31.3783023  26.7212573   6.1132563
  32.6336953  25.9198303   6.3845173  34.3218463  33.8771193   7.6139133
  34.4465883  34.7002363   8.0862943  35.1884023  33.6661923   7.2663283
  21.7935993  35.9702403   7.2856263  22.5298473  35.4217863   7.5564833
  22.1776913  36.8358413   7.1462253  18.6781473  32.0375973   3.1597773
  17.7521253  32.2797113   3.1503183  19.1437903  32.8650233   3.0382523
  20.7994273  35.1548473  16.4741843  21.6007003  35.4760523  16.8877243
  20.2846093  34.7944053  17.1961753  29.6358903  31.2628343  16.4217253
  29.0297063  31.2859943  15.6813003  29.3313013  30.5311383  16.9584503
  31.0659273  34.9908633  15.0326663  32.0181023  34.9066653  14.9826903
  30.9187493  35.6550343  15.7060453  18.5192083  27.6421933  15.4177893
  19.0231103  27.0629213  15.9894123  17.7799503  27.9262163  15.9554263
  25.5730023  29.0492923  14.9513413  24.8075693  29.6177923  14.8668083
  25.7545983  28.7569133  14.0581643  32.7153373  30.7798253  15.5088433
  33.4562843  31.1174013  15.0055893  31.9526053  30.9490313  14.9558203
  20.5515163  25.7851523  16.3127963  20.5920503  25.4865393  17.2213193
  21.4060663  26.1859133  16.1535483  22.4920973  24.3643623  14.2802453
  21.9617433  23.8734573  13.6525793  23.1609043  24.7927823  13.7460383
  31.3899033  28.8313083  14.0443643  31.8040053  28.9858163  14.8934063
  30.4550033  28.9568303  14.2069423  31.8621203  26.1709243  16.0482793
  32.4441973  25.4161563  15.9603273  32.0382973  26.7016683  15.2714273
  22.9793273  21.3305993  14.3599743  22.8850143  20.7126743  13.6350613
  22.3990663  22.0572283  14.1329653  25.7454713  19.8879233  11.3927133
  25.2972013  19.9103493  10.5472683  25.1119913  19.4898253  11.9897433
  26.1514263  28.7833563  12.0139573  26.5702373  29.6266293  11.8415813
  25.2322893  28.9205603  11.7846353  28.4878163  26.5149743  13.3977413
  28.6074373  25.9190883  14.1372253  29.3472163  26.5519433  12.9778713
  30.8266063  27.0686933  11.9739923  30.3001283  27.5929553  11.3705063
  31.1697403  27.7014323  12.6049653  24.0021683  35.0886573  13.1297303
  23.4642773  35.8132633  12.8106003  24.2555643  34.6116913  12.3394643
  25.2546933  23.0571093  14.6553233  25.8446623  22.7486943  15.3431053
  24.4367173  22.5850843  14.8113133  30.0740363  22.6736903  14.8886253
  29.3855883  22.0118443  14.8236243  30.7946383  22.2275173  15.3334713
  26.8583893  36.3237783  13.3883953  26.7842593  37.2272923  13.6956323
  25.9562733  36.0049683  13.3606023  18.2611183  33.6512373   6.6917573
  18.5914193  32.7833433   6.4596213  18.6902183  33.8570893   7.5222533
  22.8573103  31.9821383   4.3519543  22.5568643  31.8586353   5.2523453
  22.7510593  31.1229973   3.9435273  18.7501393  34.5182963   9.4299203
  18.3132383  34.6983763  10.2623353  19.3179073  35.2757583   9.2880923
  34.3863573  34.0199963  13.7176513  33.7865563  34.0792523  12.9740433
  34.5157473  33.0804943  13.8473363  18.5825823  27.0303193   5.7888083
  17.9274663  26.7614833   5.1447783  19.4203773  26.9207673   5.3390063
  36.0881453  29.3615363   6.4022353  36.4590283  28.5782683   5.9958323
  36.7283383  30.0504463   6.2239653  33.0715213  30.7451943  11.8152673
  32.2575053  31.1749103  12.0778463  33.4789413  31.3570353  11.2021723
  35.0305993  26.7368623   3.7082373  34.6549593  25.9696553   3.2763663
  34.3009113  27.1191323   4.1957303  19.6201753  27.4155763  10.3291423
  19.9874793  27.3283163  11.2087443  19.0512573  26.6522313  10.2298283
  34.4205613  25.8840143  13.3421893  34.1891703  25.6552893  12.4419843
  34.6810163  26.8039693  13.2966783  19.1717753  24.3264853  14.2349843
  18.2773803  24.2931613  14.5743553  19.7115303  24.5251643  15.0001093
  32.8593683  21.1096573  16.1201593  33.7363863  21.1179973  16.5035593
  32.8714523  20.3727413  15.5093943  34.3056953  24.9626113   7.0089613
  34.8294433  24.4688763   6.3779783  34.8916373  25.0976473   7.7537183
  34.4846673  25.0465983  10.5309163  33.5349383  25.0129523  10.6454153
  34.6659683  25.9566093  10.2958933  33.7956923  24.2199463   2.9482023
  34.2916043  23.9870333   3.7330903  33.5972993  23.3811303   2.5319663
  19.6757463  18.6013183   8.5833063  20.3233653  18.0510563   8.1428223
  20.0959303  18.8556333   9.4048873  35.2244083  22.8560413   5.4819703
  35.1143363  22.7016453   6.4201973  35.9851673  22.3281353   5.2395113
  33.5709803  18.7954543  11.9402703  34.2082023  19.4088683  12.3061893
  33.7184693  18.8315203  10.9951933  33.1291263  35.4970543   5.3420943
  33.7250333  35.1755113   4.6655363  33.3869413  35.0242363   6.1334213
  19.4289463  18.7568853  11.3258383  19.0804283  19.2132673  12.0916563
  19.0977163  17.8625983  11.4080813  21.0353833  31.9288453  15.4911573
  20.9923463  31.5581363  16.3726033  21.1664843  32.8666023  15.6313393
  24.7359863  33.4848043  11.0921293  24.4951223  33.7522603  10.2051813
  25.6762503  33.6553773  11.1472153  26.9414283  19.9480733  14.8477803
  26.8803173  20.5402563  15.5973213  27.8814663  19.8406693  14.7028063
  29.5788843  19.6050793  14.4870093  30.1929253  19.9230083  13.8251173
  30.1238403  19.1199383  15.1065953  35.9964023  35.5042423  11.8931933
  35.5022303  35.9011293  11.1759063  35.3877313  34.8791633  12.2869213
  20.1010103  18.2845053  14.6009153  20.6493093  18.1033103  13.8375263
  20.1665413  17.4939163  15.1365463  20.8741863  34.8750703  12.6109353
  20.2802183  34.7435403  13.3499393  20.8665703  34.0388843  12.1451453
  30.3196883  18.1682933  10.8139383  29.4456723  18.5018043  10.6112313
  30.2107633  17.6956113  11.6391253  31.2268863  20.3753803  12.1981103
  30.8982223  19.5605563  11.8182833  32.1751163  20.3323613  12.0746793
  33.6803473  36.1465843   9.1718673  33.2206443  36.8981653   8.7976693
  33.0515933  35.4272313   9.1133473  20.5054093  32.2409083  11.5617393
  19.7788153  31.6214373  11.4943343  20.5663243  32.6349693  10.6915473
  24.1099193  34.4554083   8.3466803  24.6264213  33.8441443   7.8215063
  24.7596573  34.9582863   8.8377813  26.8494693  35.3462573   9.1735783
  27.1372503  35.0916873   8.2968793  27.3617913  34.7939933   9.7641353
  28.0671703  19.0852773   9.7532293  27.2843493  19.5598273  10.0329053
  27.7734633  18.1807603   9.6445473  32.6192773  19.7875873   7.7981383
  33.0600863  19.7320973   6.9502983  32.3500363  20.7033883   7.8691563
  34.4831343  19.4191113   5.8090203  34.4219743  18.4752333   5.6621223
  35.2623373  19.5271203   6.3543663  18.7884093  35.5583473   4.7714153
  18.6206133  34.9254153   5.4696043  17.9218603  35.7642873   4.4208343
  25.9525923  21.5039523   5.2648323  25.1400433  21.1296413   4.9244203
  26.4567563  20.7484603   5.5669513  30.4550903  18.1681973   6.5031393
  31.0580273  18.7402183   6.9779913  29.7143893  18.7321413   6.2805293
  33.5985503  18.5703533   1.7771673  33.7936133  19.4686983   2.0439103
  32.8115373  18.3390613   2.2704623  23.9775103  19.6539443   3.8693373
  23.3477843  18.9526753   4.0363503  23.4380243  20.4143573   3.6526533
  26.9167053  36.2678673  16.5403983  27.8434363  36.0322943  16.5839943
  26.9017483  37.0950673  16.0590013  35.1512113  35.8104243   3.5378233
  35.3264303  35.1241983   2.8939153  34.4533683  36.3351293   3.1454903
  24.1030663  18.9323423  16.3045863  23.8214933  19.4357023  15.5406683
  24.4850363  18.1345173  15.9387993  30.7046123  18.3477003  16.8826333
  30.5911573  18.6671613  17.7777853  31.5215863  18.7489513  16.5863613
  33.4844613  35.4948533  16.3645023  34.2769933  34.9997763  16.1570983
  33.7777763  36.1738673  16.9720633  29.6104273   7.5925983  62.3435033
  29.5298323   6.6780593  62.0726743  29.1968693   8.0893053  61.6374743
  27.7422313   9.3705003  64.2244303  26.9664413   8.8905443  64.5142873
  28.3935243   8.6910653  64.0500463  21.7588143   9.6824813  65.1020063
  20.9273023   9.4273523  65.5016573  22.3669123   9.7535583  65.8377983
  31.7629743  13.7765193  63.0043433  31.3011273  13.0052433  63.3330603
  32.5755293  13.8031263  63.5095883  21.7389403  13.7164903  65.2978083
  22.0417443  12.8262643  65.1188303  22.4832993  14.2735123  65.0700333
  20.1680093   4.6426703  58.8862453  19.2796793   4.9842673  58.7842333
  20.4521283   4.4427023  57.9943283  18.1313103   7.2432353  64.7702153
  18.7029213   6.4754553  64.7705793  18.1314643   7.5421113  63.8608763
  27.9893053  16.0623203  62.6247423  27.3704493  16.5180703  62.0541863
  28.8444833  16.2174663  62.2237123  27.1831303  12.0462193  64.2314463
  27.1139583  11.1052133  64.0703593  27.9451163  12.1363603  64.8037033
  19.3737973   2.6516713  66.5571083  19.1940813   1.7542463  66.8373843
  18.9718053   3.1988583  67.2318033  28.2136473   4.8532573  64.4583393
  28.5901293   3.9804453  64.3457063  28.1155983   5.1891273  63.5673833
  22.3441483   3.2258203  59.9200833  22.4508233   4.1261933  60.2269593
  21.4333843   3.1776173  59.6295483  31.9960593   2.3483013  61.3911733
  32.8170213   1.8579583  61.4337213  32.0294673   2.9380673  62.1443573
  19.9924643   5.1477213  65.1653423  20.6734753   5.4115583  65.7840823
  19.6772693   4.3078083  65.4991433  24.1849213   6.1944573  64.2526013
  24.6927433   6.6925543  64.8931033  24.7162453   5.4179773  64.0765373
  36.2860143   4.3649763  67.9555363  35.5812313   4.7531473  67.4370473
  36.5518063   5.0600053  68.5576293  28.8556403  10.9462443  60.0179333
  28.2373673  11.4111893  59.4542053  29.3679653  11.6389923  60.4348843
  23.7188163  10.4738313  66.6962933  23.3857543  11.1007233  67.3384003
  23.8954843  11.0000193  65.9164603  32.2322073   4.2883393  64.1639273
  31.5277643   4.5768283  64.7442383  32.5934233   5.0983503  63.8038833
  22.1500643   2.5453093  66.5259883  22.4917453   3.3895143  66.2313753
  21.2116453   2.6936833  66.6425223  22.9307263  12.4419113  68.5112113
  23.5481263  13.1170193  68.2296563  22.0700383  12.8507093  68.4199613
  18.2239603  11.6318973  57.3918963  17.8467583  12.1206073  56.6603863
  18.4812673  12.3044253  58.0225493  33.8484853  13.9058523  66.4266753
  33.1648373  14.5757633  66.4183423  34.3879143  14.1039173  65.6611613
  35.3008993   3.7338183  64.5548483  34.3533903   3.7677163  64.6863913
  35.6258983   4.5477133  64.9397843  31.3843593  15.7502653  65.1411933
  31.3970753  15.3464943  64.2734193  30.8318813  16.5249943  65.0373363
  32.6789013  12.4718873  60.2302103  32.5685343  11.5293203  60.3551523
  32.6757263  12.8334513  61.1164863  30.7829033  10.6532493  66.4694543
  31.1997823  10.4392603  65.6348003  31.5068853  10.9105283  67.0403163
  28.2209293   8.0984193  59.5864593  27.2938573   8.0321573  59.8153063
  28.3734113   9.0364323  59.4719833  28.2078373   4.3701193  56.5831753
  27.2682043   4.5315153  56.6684213  28.5261633   5.0886873  56.0367743
  34.7291133   9.0519713  66.5610783  33.9009763   9.1212803  66.0860913
  35.3241613   9.6374023  66.0926613  32.2506583   9.6604493  60.0899843
  31.6319003   9.3224043  59.4426143  32.2331033   9.0164253  60.7979033
  31.6933143   5.8389033  67.5065653  31.2804323   6.6642743  67.7605643
  30.9609093   5.2534073  67.3142013  23.8265933   8.6248933  62.3684323
  23.4222933   7.9126183  61.8730223  23.9129053   8.2802173  63.2572363
  24.2947633  12.3116493  64.5323533  23.9975923  11.7061963  63.8531313
  25.2447453  12.3493803  64.4212893  22.5394553   5.3992143  66.1483363
  23.0909143   5.5087483  65.3736613  23.0538063   5.7729743  66.8638593
  32.3833243  15.8848363  68.1946633  31.9063803  16.6920553  68.0019243
  31.6995033  15.2326693  68.3472843  30.4271283   8.8991303  57.0972593
  30.8664563   8.0613733  56.9510413  31.1399703   9.5320703  57.1836733
  28.5366663  13.8387373  61.0653833  28.9762573  14.5811703  60.6509223
  28.4753553  14.0813943  61.9892793  20.5270563   7.5193913  59.8690973
  20.4068163   8.2456003  59.2572243  20.2171453   6.7496823  59.3918883
  18.1655933  10.6909053  65.6759613  18.2436353  10.8257823  64.7315333
  18.7797613   9.9824943  65.8687733  19.4103563  12.3909243  62.0865793
  19.0031643  12.5323833  61.2319393  20.3016573  12.1069403  61.8837003
  29.2282443  16.5401153  68.9932843  29.7427113  16.4509163  69.7955273
  28.3851523  16.8860853  69.2860753  31.2036843  16.8256493  58.4216843
  31.0437983  16.5359433  59.3198673  31.0383553  16.0496623  57.8862073
  23.6825223  16.6055023  60.1988463  23.5067703  15.6890563  59.9856263
  22.8280963  16.9642313  60.4386263  30.9062973  14.3344053  56.9814843
  30.2128133  14.3321343  56.3217123  31.6485833  13.9103373  56.5509013
  30.4712903  15.9606763  61.0563333  30.9269853  15.1796143  61.3701953
  30.8105423  16.6713583  61.6004513  18.2215453  11.7323223  68.2154073
  18.3846493  11.2628583  67.3973443  18.6867903  11.2246783  68.8802913
  27.2804033   3.7297503  68.8549963  26.8183403   3.9380523  69.6669903
  26.8782143   2.9156853  68.5520633  22.7848443   5.9862553  60.9795893
  22.5589363   5.7699723  61.8842513  22.0040973   6.4191013  60.6341863
  30.0146203   5.9925923  59.5786543  29.4155093   6.7161723  59.3950163
  30.5625813   5.9302703  58.7962993  28.6211073   4.6289463  61.6089823
  29.0140643   4.9461663  60.7958513  28.9827923   3.7501343  61.7234343
  17.8445473   5.1610383  55.0422743  17.7620143   6.1041143  55.1837733
  17.4928533   5.0185293  54.1635093  29.2066213   7.2195213  65.7040603
  28.4747333   7.7282023  66.0530703  28.8090553   6.4025193  65.4029383
  25.6443603   3.8949413  64.1093093  25.6479663   3.4539363  63.2597633
  26.5394723   4.2166743  64.2164913  21.4945983   3.7775903  63.0687303
  21.1546033   4.2551133  63.8254353  20.7323303   3.3241023  62.7088403
  25.7063753   4.8961493  57.0999853  25.8276573   4.8547973  58.0485673
  25.3212263   5.7585643  56.9446583  29.6692123   2.6728893  65.1163543
  29.6864863   3.1237543  65.9605393  29.4207703   1.7734533  65.3296983
  24.7185253   7.2062633  56.4983153  24.1502153   6.7580883  55.8719063
  25.4274253   7.5655413  55.9648303  25.9451573   7.9551193  65.8558503
  26.3121703   7.4809763  66.6019843  25.7556633   8.8292763  66.1966843
  18.8092063   2.6994883  61.9851973  18.5238983   2.3350553  62.8230593
  18.7470923   1.9675343  61.3715113  23.7350943   6.9959833  68.1742713
  23.4308013   7.8751813  68.3993073  24.6897403   7.0559623  68.2100153
  22.2632733  11.2020823  58.7709563  21.4894993  10.6618443  58.6108283
  22.9927363  10.6827433  58.4327323  33.0220713  10.1986183  64.5635953
  33.7419833  10.6941473  64.1732063  32.8202533   9.5204073  63.9189823
  31.1979043   5.9643793  57.0027503  32.0858663   6.2761023  56.8278843
  31.1684133   5.0916043  56.6108083  22.3070133  10.8701203  62.4088373
  22.8248803  10.0669463  62.3545263  21.8554153  10.8080343  63.2505203
  27.1939633  12.1367483  57.6815673  27.5355333  12.8809713  57.1858993
  26.3652343  12.4498603  58.0440503  33.4693313   7.2755633  56.4707363
  33.3857033   7.7069853  55.6203803  34.1887503   7.7353983  56.9034183
  34.5467453   9.7323153  69.5477333  33.8215643  10.3251933  69.3506723
  35.0742913   9.7246693  68.7490703  34.4980563  14.1297893  59.1989493
  33.8556723  13.4753513  59.4733213  34.1111223  14.5352983  58.4230163
  30.0767043  11.4583323  63.0461183  30.4290863  10.8611453  62.3862553
  29.1929373  11.1327553  63.2169433  26.1630323  12.2181013  60.4531593
  26.8501453  12.7650223  60.8339183  25.3762743  12.7621743  60.4881203
  18.3022723   7.8353833  55.9448673  19.1717573   8.1178633  56.2284593
  17.8113043   8.6489703  55.8297483  25.4657533   9.2227043  60.0656953
  25.9220313  10.0332293  60.2917143  25.1145743   8.9050183  60.8975443
  27.7690143  14.7333383  67.2949253  28.4132363  14.9392763  67.9722673
  28.1319583  13.9721783  66.8420103  29.0422223  12.7365733  66.0126703
  29.6844453  12.0358893  66.1258873  29.5671573  13.5164173  65.8323593
  32.8877943  13.0214353  55.7365843  32.6615523  12.3044793  56.3290483
  32.4974143  12.7726793  54.8987593  18.6693973  17.0481213  56.5110303
  19.0291613  17.6470553  55.8567573  18.5286313  17.5941103  57.2845333
  32.4694193  10.9386293  57.3980003  32.1815893  11.3998983  58.1857883
  33.2646363  10.4784063  57.6664223  24.6862593  14.4312413  57.3283973
  24.6772693  15.1642103  56.7128483  23.7660953  14.1843993  57.4210933
  20.2869233   9.6527303  58.0730733  19.6797183  10.3926203  58.0826033
  20.7618583   9.7426663  57.2468933  29.8602023   3.8178123  67.7487623
  30.2282843   2.9973333  68.0767193  29.0000223   3.8780013  68.1643273
  33.2264053   2.7735063  58.5575183  32.5977213   2.8780733  57.8433413
  32.7315973   2.9931843  59.3469063  27.6722193  14.4940653  55.9909163
  27.7734173  14.2904643  55.0611143  26.7723933  14.2398933  56.1956943
  25.1948083   5.0521013  59.9733063  24.4864233   5.5207353  60.4146673
  25.4792563   4.3943023  60.6078253  26.8204013   6.4717713  67.9725593
  27.3189263   6.9463533  68.6377443  26.9626963   5.5481233  68.1795623
  29.2263513   1.7771673  61.4128853  29.1031293   1.7957803  60.4638363
  30.1748073   1.8250613  61.5327253  26.3140303  17.0126973  60.6856833
  26.5681803  16.9748363  59.7636203  25.3652783  16.8860303  60.6785083
  23.3983103   3.3606093  57.3483773  24.2473633   3.7976243  57.2823963
  23.0314373   3.6726353  58.1755833  34.0270873   2.6885673  68.8153983
  33.5244473   3.4291073  69.1547793  34.8427533   3.0769673  68.4990773
  32.3192883   7.9318853  62.2615343  31.3783023   7.9469083  62.4363033
  32.6336953   7.1454813  62.7075643  22.2974523   9.6138453  55.8219303
  23.0637793   9.5019813  56.3844733  22.3749213   8.9176423  55.1696073
  20.9921283   7.0463523  56.5052193  21.0724873   6.0991033  56.6169593
  21.8841033   7.3770403  56.6112853  34.3218463  15.1027703  63.9369603
  34.4465883  15.9258873  64.4093413  35.1884023  14.8918433  63.5893753
  21.7935993  17.1958913  63.6086733  22.5298473  16.6474373  63.8795303
  22.1776913  18.0614923  63.4692723  18.6781473  13.2632483  59.4828243
  17.7521253  13.5053623  59.4733653  19.1437903  14.0906743  59.3612993
  24.9038303  16.3689223  55.4312303  25.6966913  16.6578053  54.9794093
  24.3842653  15.9381393  54.7524783  33.9568473  15.5959353  56.8549043
  33.6709983  15.1824493  56.0403223  33.7588023  16.5247063  56.7349563
  25.4215703  11.5892633  55.2954653  25.3166343  10.9744983  56.0216033
  25.2539923  11.0658523  54.5117663  28.6618433  10.6512663  55.8996643
  28.1128533  11.0981963  56.5439383  29.2837693  10.1461913  56.4234313
  24.3293553   9.6103583  57.7961943  24.7509973   9.4443453  58.6393333
  24.4544393   8.8003813  57.3017083  26.8421193   8.6341193  55.0439043
  27.3626853   7.9190213  54.6780193  27.4889593   9.2727063  55.3439553
  26.1514263  10.0090073  68.3370043  26.5702373  10.8522803  68.1646283
  25.2322893  10.1462113  68.1076823  30.8266063   8.2943443  68.2970393
  30.3001283   8.8186063  67.6935533  31.1697403   8.9270833  68.9280123
  23.2252453   5.6836813  54.7420103  23.0241513   4.8204173  55.1033443
  23.0544503   5.5970173  53.8041703  24.0021683  16.3143083  69.4527773
  23.4642773  17.0389143  69.1336473  24.2555643  15.8373423  68.6625113
  22.0235253   2.7837433  54.7297983  22.3261153   2.7904863  53.8217133
  22.7629843   2.4335293  55.2265643  27.4069223  16.7152803  57.3340783
  28.3020013  17.0537773  57.3559543  27.4386853  15.9932213  56.7065063
  21.0465383  12.0879853  55.5627783  21.4840253  12.6309523  56.2185363
  21.5313113  11.2626803  55.5724123  18.2611183  14.8768883  63.0148043
  18.5914193  14.0089943  62.7826683  18.6902183  15.0827403  63.8453003
  22.8573103  13.2077893  60.6750013  22.5568643  13.0842863  61.5753923
  22.7510593  12.3486483  60.2665743  18.7501393  15.7439473  65.7529673
  18.3132383  15.9240273  66.5853823  19.3179073  16.5014093  65.6111393
  35.6265023  12.9874293  55.3776693  34.7957983  13.0550943  55.8483923
  35.8036853  13.8778413  55.0743553  35.0821483   9.7321773  57.8810893
  35.8440393  10.3018423  57.9870583  35.0975853   9.1648973  58.6519203
  18.5825823   8.2559703  62.1118553  17.9274663   7.9871343  61.4678253
  19.4203773   8.1464183  61.6620533  36.0881453  10.5871873  62.7252823
  36.4590283   9.8039193  62.3188793  36.7283383  11.2760973  62.5470123
  33.0715213  11.9708453  68.1383143  32.2575053  12.4005613  68.4008933
  33.4789413  12.5826863  67.5252193  35.1340653  10.0256143  55.0383413
  35.4089493  10.9335023  54.9102633  34.9451393   9.9618673  55.9745403
  31.5316263   3.0500993  56.3337043  31.9501143   2.8631973  55.4933703
  31.2252323   2.1980043  56.6439973  35.0305993   7.9625133  60.0312843
  34.6549593   7.1953063  59.5994133  34.3009113   8.3447833  60.5187773
  19.6201753   8.6412273  66.6521893  19.9874793   8.5539673  67.5317913
  19.0512573   7.8778823  66.5528753  34.4205613   7.1096653  69.6652363
  34.1891703   6.8809403  68.7650313  34.6810163   8.0296203  69.6197253
  17.7963903   5.4658633  58.0543883  16.8927983   5.7288833  57.8795543
  18.2804523   5.7369803  57.2743843  34.3056953   6.1882623  63.3320083
  34.8294433   5.6945273  62.7010253  34.8916373   6.3232983  64.0767653
  34.4846673   6.2722493  66.8539633  33.5349383   6.2386033  66.9684623
  34.6659683   7.1822603  66.6189403  20.3391113   4.5224173  55.9638263
  21.0482813   4.1007393  55.4785543  19.6231053   4.5899403  55.3321613
  33.7956923   5.4455973  59.2712493  34.2916043   5.2126843  60.0561373
  33.5972993   4.6067813  58.8550133  35.2244083   4.0816923  61.8050173
  35.1143363   3.9272963  62.7432443  35.9851673   3.5537863  61.5625583
  36.1134353   1.9124843  55.0456313  37.0383663   1.7806023  54.8374603
  36.0910143   1.9917663  55.9992763  36.1872843   2.6835503  57.6713023
  35.3924343   2.6180623  58.2005933  36.3916123   3.6186143  57.6598373
  33.1291263  16.7227053  61.6651413  33.7250333  16.4011623  60.9885833
  33.3869413  16.2498873  62.4564683  24.7359863  14.7104553  67.4151763
  24.4951223  14.9779113  66.5282283  25.6762503  14.8810283  67.4702623
  35.9964023  16.7298933  68.2162403  35.5022303  17.1267803  67.4989533
  35.3877313  16.1048143  68.6099683  20.8741863  16.1007213  68.9339823
  20.2802183  15.9691913  69.6729863  20.8665703  15.2645353  68.4681923
  33.6803473  17.3722353  65.4949143  33.2206443  18.1238163  65.1207163
  33.0515933  16.6528823  65.4363943  20.5054093  13.4665593  67.8847863
  19.7788153  12.8470883  67.8173813  20.5663243  13.8606203  67.0145943
  24.1099193  15.6810593  64.6697273  24.6264213  15.0697953  64.1445533
  24.7596573  16.1839373  65.1608283  26.8494693  16.5719083  65.4966253
  27.1372503  16.3173383  64.6199263  27.3617913  16.0196443  66.0871823
  18.7884093  16.7839983  61.0944623  18.6206133  16.1510663  61.7926513
  17.9218603  16.9899383  60.7438813  25.9525923   2.7296033  61.5878793
  25.1400433   2.3552923  61.2474673  26.4567563   1.9741113  61.8899983
  20.3946793  15.4773213  58.5394763  19.8694413  15.8581243  57.8356723
  20.3191373  16.1023983  59.2604473  35.1512113  17.0360753  59.8608703
  35.3264303  16.3498493  59.2169623  34.4533683  17.5607803  59.4685373
  22.9939763  17.4255593  57.4144013  23.7258583  17.1414873  56.8667903
  23.2533433  17.1868873  58.3043393  22.1554553  13.5420323  57.4190343
  21.5263433  14.0105423  57.9676173  22.2702383  12.6969543  57.8536533
  29.6104273   7.5925983  43.5691543  29.5298323   6.6780593  43.2983253
  29.1968693   8.0893053  42.8631253  27.7422313   9.3705003  45.4500813
  26.9664413   8.8905443  45.7399383  28.3935243   8.6910653  45.2756973
  21.7588143   9.6824813  46.3276573  20.9273023   9.4273523  46.7273083
  22.3669123   9.7535583  47.0634493  31.7629743  13.7765193  44.2299943
  31.3011273  13.0052433  44.5587113  32.5755293  13.8031263  44.7352393
  21.7389403  13.7164903  46.5234593  22.0417443  12.8262643  46.3444813
  22.4832993  14.2735123  46.2956843  20.1680093   4.6426703  40.1118963
  19.2796793   4.9842673  40.0098843  20.4521283   4.4427023  39.2199793
  18.1313103   7.2432353  45.9958663  18.7029213   6.4754553  45.9962303
  18.1314643   7.5421113  45.0865273  27.9893053  16.0623203  43.8503933
  27.3704493  16.5180703  43.2798373  28.8444833  16.2174663  43.4493633
  27.1831303  12.0462193  45.4570973  27.1139583  11.1052133  45.2960103
  27.9451163  12.1363603  46.0293543  19.3737973   2.6516713  47.7827593
  19.1940813   1.7542463  48.0630353  18.9718053   3.1988583  48.4574543
  28.2136473   4.8532573  45.6839903  28.5901293   3.9804453  45.5713573
  28.1155983   5.1891273  44.7930343  22.3441483   3.2258203  41.1457343
  22.4508233   4.1261933  41.4526103  21.4333843   3.1776173  40.8551993
  31.9960593   2.3483013  42.6168243  32.8170213   1.8579583  42.6593723
  32.0294673   2.9380673  43.3700083  19.9924643   5.1477213  46.3909933
  20.6734753   5.4115583  47.0097333  19.6772693   4.3078083  46.7247943
  24.1849213   6.1944573  45.4782523  24.6927433   6.6925543  46.1187543
  24.7162453   5.4179773  45.3021883  36.2860143   4.3649763  49.1811873
  35.5812313   4.7531473  48.6626983  36.5518063   5.0600053  49.7832803
  28.8556403  10.9462443  41.2435843  28.2373673  11.4111893  40.6798563
  29.3679653  11.6389923  41.6605353  23.7188163  10.4738313  47.9219443
  23.3857543  11.1007233  48.5640513  23.8954843  11.0000193  47.1421113
  32.2322073   4.2883393  45.3895783  31.5277643   4.5768283  45.9698893
  32.5934233   5.0983503  45.0295343  22.1500643   2.5453093  47.7516393
  22.4917453   3.3895143  47.4570263  21.2116453   2.6936833  47.8681733
  22.9307263  12.4419113  49.7368623  23.5481263  13.1170193  49.4553073
  22.0700383  12.8507093  49.6456123  18.2239603  11.6318973  38.6175473
  17.8467583  12.1206073  37.8860373  18.4812673  12.3044253  39.2482003
  33.8484853  13.9058523  47.6523263  33.1648373  14.5757633  47.6439933
  34.3879143  14.1039173  46.8868123  35.3008993   3.7338183  45.7804993
  34.3533903   3.7677163  45.9120423  35.6258983   4.5477133  46.1654353
  31.3843593  15.7502653  46.3668443  31.3970753  15.3464943  45.4990703
  30.8318813  16.5249943  46.2629873  32.6789013  12.4718873  41.4558613
  32.5685343  11.5293203  41.5808033  32.6757263  12.8334513  42.3421373
  30.7829033  10.6532493  47.6951053  31.1997823  10.4392603  46.8604513
  31.5068853  10.9105283  48.2659673  28.2209293   8.0984193  40.8121103
  27.2938573   8.0321573  41.0409573  28.3734113   9.0364323  40.6976343
  28.2078373   4.3701193  37.8088263  27.2682043   4.5315153  37.8940723
  28.5261633   5.0886873  37.2624253  34.7291133   9.0519713  47.7867293
  33.9009763   9.1212803  47.3117423  35.3241613   9.6374023  47.3183123
  32.2506583   9.6604493  41.3156353  31.6319003   9.3224043  40.6682653
  32.2331033   9.0164253  42.0235543  31.6933143   5.8389033  48.7322163
  31.2804323   6.6642743  48.9862153  30.9609093   5.2534073  48.5398523
  23.8265933   8.6248933  43.5940833  23.4222933   7.9126183  43.0986733
  23.9129053   8.2802173  44.4828873  24.2947633  12.3116493  45.7580043
  23.9975923  11.7061963  45.0787823  25.2447453  12.3493803  45.6469403
  22.5394553   5.3992143  47.3739873  23.0909143   5.5087483  46.5993123
  23.0538063   5.7729743  48.0895103  32.3833243  15.8848363  49.4203143
  31.9063803  16.6920553  49.2275753  31.6995033  15.2326693  49.5729353
  23.3866063  12.0498183  52.4087843  22.4894593  12.2738153  52.6561243
  23.4118933  12.1733123  51.4599243  30.4271283   8.8991303  38.3229103
  30.8664563   8.0613733  38.1766923  31.1399703   9.5320703  38.4093243
  22.2137283   8.9211503  50.9845213  22.0745053   9.7934303  51.3532613
  21.3318643   8.5784313  50.8393153  28.5366663  13.8387373  42.2910343
  28.9762573  14.5811703  41.8765733  28.4753553  14.0813943  43.2149303
  24.0117633  14.8633203  53.1930363  23.9833063  15.2676153  52.3258793
  23.8482603  13.9343563  53.0301963  20.5270563   7.5193913  41.0947483
  20.4068163   8.2456003  40.4828753  20.2171453   6.7496823  40.6175393
  35.9632453  15.6460303  54.4894533  36.4392173  16.1243193  55.1683613
  36.5839613  15.5777793  53.7640033  18.1655933  10.6909053  46.9016123
  18.2436353  10.8257823  45.9571843  18.7797613   9.9824943  47.0944243
  19.4103563  12.3909243  43.3122303  19.0031643  12.5323833  42.4575903
  20.3016573  12.1069403  43.1093513  35.3665703  12.8373153  51.6494543
  35.4928763  12.5985033  50.7311723  35.4087083  12.0057693  52.1216623
  29.2282443  16.5401153  50.2189353  29.7427113  16.4509163  51.0211783
  28.3851523  16.8860853  50.5117263  31.2036843  16.8256493  39.6473353
  31.0437983  16.5359433  40.5455183  31.0383553  16.0496623  39.1118583
  23.6825223  16.6055023  41.4244973  23.5067703  15.6890563  41.2112773
  22.8280963  16.9642313  41.6642773  30.9062973  14.3344053  38.2071353
  30.2128133  14.3321343  37.5473633  31.6485833  13.9103373  37.7765523
  30.4712903  15.9606763  42.2819843  30.9269853  15.1796143  42.5958463
  30.8105423  16.6713583  42.8261023  35.2189713   4.8905613  52.6144283
  34.6033983   5.3985283  52.0859743  34.8986133   3.9903943  52.5570223
  18.2215453  11.7323223  49.4410583  18.3846493  11.2628583  48.6229953
  18.6867903  11.2246783  50.1059423  27.2804033   3.7297503  50.0806473
  26.8183403   3.9380523  50.8926413  26.8782143   2.9156853  49.7777143
  32.2808543   4.9506453  51.2103133  31.4302133   4.6512203  51.5312203
  32.1210333   5.1948463  50.2986953  29.3758253   6.4508203  53.3101923
  29.7011663   5.6171953  52.9704153  30.1638583   6.9736723  53.4580253
  22.7848443   5.9862553  42.2052403  22.5589363   5.7699723  43.1099023
  22.0040973   6.4191013  41.8598373  30.0146203   5.9925923  40.8043053
  29.4155093   6.7161723  40.6206673  30.5625813   5.9302703  40.0219503
  25.2247653   6.8848133  52.8712673  25.1291253   5.9442863  52.7213073
  26.0679633   7.1063203  52.4760743  28.6211073   4.6289463  42.8346333
  29.0140643   4.9461663  42.0215023  28.9827923   3.7501343  42.9490853
  20.3558193   3.2961803  51.0246453  19.9621583   4.1437013  51.2319233
  19.6676593   2.6588173  51.2155093  26.9303243   3.3796773  54.0943193
  26.2401563   3.1868973  54.7289283  27.6735543   3.6631413  54.6267493
  17.8445473   5.1610383  36.2679253  17.7620143   6.1041143  36.4094243
  17.4928533   5.0185293  35.3891603  29.2066213   7.2195213  46.9297113
  28.4747333   7.7282023  47.2787213  28.8090553   6.4025193  46.6285893
  25.6443603   3.8949413  45.3349603  25.6479663   3.4539363  44.4854143
  26.5394723   4.2166743  45.4421423  21.4945983   3.7775903  44.2943813
  21.1546033   4.2551133  45.0510863  20.7323303   3.3241023  43.9344913
  25.7063753   4.8961493  38.3256363  25.8276573   4.8547973  39.2742183
  25.3212263   5.7585643  38.1703093  29.6692123   2.6728893  46.3420053
  29.6864863   3.1237543  47.1861903  29.4207703   1.7734533  46.5553493
  24.7185253   7.2062633  37.7239663  24.1502153   6.7580883  37.0975573
  25.4274253   7.5655413  37.1904813  19.7954433  11.1074653  51.6006393
  19.4109223  10.4668323  52.1989353  20.1066623  11.8110773  52.1701123
  25.9451573   7.9551193  47.0815013  26.3121703   7.4809763  47.8276353
  25.7556633   8.8292763  47.4223353  18.8092063   2.6994883  43.2108483
  18.5238983   2.3350553  44.0487103  18.7470923   1.9675343  42.5971623
  23.7350943   6.9959833  49.3999223  23.4308013   7.8751813  49.6249583
  24.6897403   7.0559623  49.4356663  22.2632733  11.2020823  39.9966073
  21.4894993  10.6618443  39.8364793  22.9927363  10.6827433  39.6583833
  33.0220713  10.1986183  45.7892463  33.7419833  10.6941473  45.3988573
  32.8202533   9.5204073  45.1446333  28.4039513  10.2695243  51.6761463
  28.3376823   9.3490913  51.4219053  27.7744653  10.3670683  52.3906103
  31.1979043   5.9643793  38.2284013  32.0858663   6.2761023  38.0535353
  31.1684133   5.0916043  37.8364593  22.3070133  10.8701203  43.6344883
  22.8248803  10.0669463  43.5801773  21.8554153  10.8080343  44.4761713
  27.1939633  12.1367483  38.9072183  27.5355333  12.8809713  38.4115503
  26.3652343  12.4498603  39.2697013  19.7914673   7.8362573  50.5470583
  19.4329613   8.5016423  51.1343923  19.4969233   7.0046123  50.9183203
  22.9927793   8.2946813  53.4310133  22.6927933   8.4403993  52.5337953
  23.7639033   7.7352103  53.3383523  28.3356243  13.0915813  51.4265263
  28.3500783  12.1596773  51.2084173  27.6281343  13.1775573  52.0655033
  33.4693313   7.2755633  37.6963873  33.3857033   7.7069853  36.8460313
  34.1887503   7.7353983  38.1290693  34.5467453   9.7323153  50.7733843
  33.8215643  10.3251933  50.5763233  35.0742913   9.7246693  49.9747213
  34.4980563  14.1297893  40.4246003  33.8556723  13.4753513  40.6989723
  34.1111223  14.5352983  39.6486673  30.0767043  11.4583323  44.2717693
  30.4290863  10.8611453  43.6119063  29.1929373  11.1327553  44.4425943
  26.1630323  12.2181013  41.6788103  26.8501453  12.7650223  42.0595693
  25.3762743  12.7621743  41.7137713  18.3022723   7.8353833  37.1705183
  19.1717573   8.1178633  37.4541103  17.8113043   8.6489703  37.0553993
  25.4657533   9.2227043  41.2913463  25.9220313  10.0332293  41.5173653
  25.1145743   8.9050183  42.1231953  27.7690143  14.7333383  48.5205763
  28.4132363  14.9392763  49.1979183  28.1319583  13.9721783  48.0676613
  29.0422223  12.7365733  47.2383213  29.6844453  12.0358893  47.3515383
  29.5671573  13.5164173  47.0580103  32.8877943  13.0214353  36.9622353
  32.6615523  12.3044793  37.5546993  32.4974143  12.7726793  36.1244103
  30.8159843  13.5360633  50.4419273  31.1516083  14.1227323  51.1197193
  29.8960183  13.4053343  50.6717063  18.6693973  17.0481213  37.7366813
  19.0291613  17.6470553  37.0824083  18.5286313  17.5941103  38.5101843
  32.4694193  10.9386293  38.6236513  32.1815893  11.3998983  39.4114393
  33.2646363  10.4784063  38.8920733  18.6535833  15.3136073  52.2109213
  18.7626953  14.3730813  52.0704603  18.0016393  15.5790823  51.5622943
  26.6448423  13.5851963  53.6107333  26.3245293  12.8661203  54.1553023
  25.9706783  14.2607033  53.6843393  24.6862593  14.4312413  38.5540483
  24.6772693  15.1642103  37.9384993  23.7660953  14.1843993  38.6467443
  20.2869233   9.6527303  39.2987243  19.6797183  10.3926203  39.3082543
  20.7618583   9.7426663  38.4725443  29.8602023   3.8178123  48.9744133
  30.2282843   2.9973333  49.3023703  29.0000223   3.8780013  49.3899783
  33.2264053   2.7735063  39.7831693  32.5977213   2.8780733  39.0689923
  32.7315973   2.9931843  40.5725573  27.6722193  14.4940653  37.2165673
  27.7734173  14.2904643  36.2867653  26.7723933  14.2398933  37.4213453
  25.1948083   5.0521013  41.1989573  24.4864233   5.5207353  41.6403183
  25.4792563   4.3943023  41.8334763  26.8204013   6.4717713  49.1982103
  27.3189263   6.9463533  49.8633953  26.9626963   5.5481233  49.4052133
  29.2263513   1.7771673  42.6385363  29.1031293   1.7957803  41.6894873
  30.1748073   1.8250613  42.7583763  26.3140303  17.0126973  41.9113343
  26.5681803  16.9748363  40.9892713  25.3652783  16.8860303  41.9041593
  23.3983103   3.3606093  38.5740283  24.2473633   3.7976243  38.5080473
  23.0314373   3.6726353  39.4012343  34.0270873   2.6885673  50.0410493
  33.5244473   3.4291073  50.3804303  34.8427533   3.0769673  49.7247283
  32.3192883   7.9318853  43.4871853  31.3783023   7.9469083  43.6619543
  32.6336953   7.1454813  43.9332153  22.2974523   9.6138453  37.0475813
  23.0637793   9.5019813  37.6101243  22.3749213   8.9176423  36.3952583
  20.9921283   7.0463523  37.7308703  21.0724873   6.0991033  37.8426103
  21.8841033   7.3770403  37.8369363  34.3218463  15.1027703  45.1626113
  34.4465883  15.9258873  45.6349923  35.1884023  14.8918433  44.8150263
  21.7935993  17.1958913  44.8343243  22.5298473  16.6474373  45.1051813
  22.1776913  18.0614923  44.6949233  18.6781473  13.2632483  40.7084753
  17.7521253  13.5053623  40.6990163  19.1437903  14.0906743  40.5869503
  20.7994273  16.3804983  54.0228823  21.6007003  16.7017033  54.4364223
  20.2846093  16.0200563  54.7448733  24.9038303  16.3689223  36.6568813
  25.6966913  16.6578053  36.2050603  24.3842653  15.9381393  35.9781293
  29.6358903  12.4884853  53.9704233  29.0297063  12.5116453  53.2299983
  29.3313013  11.7567893  54.5071483  31.0659273  16.2165143  52.5813643
  32.0181023  16.1323163  52.5313883  30.9187493  16.8806853  53.2547433
  33.9568473  15.5959353  38.0805553  33.6709983  15.1824493  37.2659733
  33.7588023  16.5247063  37.9606073  18.5192083   8.8678443  52.9664873
  19.0231103   8.2885723  53.5381103  17.7799503   9.1518673  53.5041243
  25.4215703  11.5892633  36.5211163  25.3166343  10.9744983  37.2472543
  25.2539923  11.0658523  35.7374173  25.5730023  10.2749433  52.5000393
  24.8075693  10.8434433  52.4155063  25.7545983   9.9825643  51.6068623
  28.6618433  10.6512663  37.1253153  28.1128533  11.0981963  37.7695893
  29.2837693  10.1461913  37.6490823  32.7153373  12.0054763  53.0575413
  33.4562843  12.3430523  52.5542873  31.9526053  12.1746823  52.5045183
  20.5515163   7.0108033  53.8614943  20.5920503   6.7121903  54.7700173
  21.4060663   7.4115643  53.7022463  24.3293553   9.6103583  39.0218453
  24.7509973   9.4443453  39.8649843  24.4544393   8.8003813  38.5273593
  22.4920973   5.5900133  51.8289433  21.9617433   5.0991083  51.2012773
  23.1609043   6.0184333  51.2947363  26.8421193   8.6341193  36.2695553
  27.3626853   7.9190213  35.9036703  27.4889593   9.2727063  36.5696063
  31.3899033  10.0569593  51.5930623  31.8040053  10.2114673  52.4421043
  30.4550033  10.1824813  51.7556403  31.8621203   7.3965753  53.5969773
  32.4441973   6.6418073  53.5090253  32.0382973   7.9273193  52.8201253
  22.9793273   2.5562503  51.9086723  22.8850143   1.9383253  51.1837593
  22.3990663   3.2828793  51.6816633  26.1514263  10.0090073  49.5626553
  26.5702373  10.8522803  49.3902793  25.2322893  10.1462113  49.3333333
  28.4878163   7.7406253  50.9464393  28.6074373   7.1447393  51.6859233
  29.3472163   7.7775943  50.5265693  30.8266063   8.2943443  49.5226903
  30.3001283   8.8186063  48.9192043  31.1697403   8.9270833  50.1536633
  23.2252453   5.6836813  35.9676613  23.0241513   4.8204173  36.3289953
  23.0544503   5.5970173  35.0298213  24.0021683  16.3143083  50.6784283
  23.4642773  17.0389143  50.3592983  24.2555643  15.8373423  49.8881623
  25.2546933   4.2827603  52.2040213  25.8446623   3.9743453  52.8918033
  24.4367173   3.8107353  52.3600113  30.0740363   3.8993413  52.4373233
  29.3855883   3.2374953  52.3723223  30.7946383   3.4531683  52.8821693
  22.0235253   2.7837433  35.9554493  22.3261153   2.7904863  35.0473643
  22.7629843   2.4335293  36.4522153  26.8583893  17.5494293  50.9370933
  26.7842593  18.4529433  51.2443303  25.9562733  17.2306193  50.9093003
  27.4069223  16.7152803  38.5597293  28.3020013  17.0537773  38.5816053
  27.4386853  15.9932213  37.9321573  21.0465383  12.0879853  36.7884293
  21.4840253  12.6309523  37.4441873  21.5313113  11.2626803  36.7980633
  18.2611183  14.8768883  44.2404553  18.5914193  14.0089943  44.0083193
  18.6902183  15.0827403  45.0709513  22.8573103  13.2077893  41.9006523
  22.5568643  13.0842863  42.8010433  22.7510593  12.3486483  41.4922253
  18.7501393  15.7439473  46.9786183  18.3132383  15.9240273  47.8110333
  19.3179073  16.5014093  46.8367903  34.3863573  15.2456473  51.2663493
  33.7865563  15.3049033  50.5227413  34.5157473  14.3061453  51.3960343
  35.6265023  12.9874293  36.6033203  34.7957983  13.0550943  37.0740433
  35.8036853  13.8778413  36.3000063  35.0821483   9.7321773  39.1067403
  35.8440393  10.3018423  39.2127093  35.0975853   9.1648973  39.8775713
  18.5825823   8.2559703  43.3375063  17.9274663   7.9871343  42.6934763
  19.4203773   8.1464183  42.8877043  36.0881453  10.5871873  43.9509333
  36.4590283   9.8039193  43.5445303  36.7283383  11.2760973  43.7726633
  33.0715213  11.9708453  49.3639653  32.2575053  12.4005613  49.6265443
  33.4789413  12.5826863  48.7508703  35.1340653  10.0256143  36.2639923
  35.4089493  10.9335023  36.1359143  34.9451393   9.9618673  37.2001913
  31.5316263   3.0500993  37.5593553  31.9501143   2.8631973  36.7190213
  31.2252323   2.1980043  37.8696483  35.0305993   7.9625133  41.2569353
  34.6549593   7.1953063  40.8250643  34.3009113   8.3447833  41.7444283
  19.6201753   8.6412273  47.8778403  19.9874793   8.5539673  48.7574423
  19.0512573   7.8778823  47.7785263  34.4205613   7.1096653  50.8908873
  34.1891703   6.8809403  49.9906823  34.6810163   8.0296203  50.8453763
  19.1717753   5.5521363  51.7836823  18.2773803   5.5188123  52.1230533
  19.7115303   5.7508153  52.5488073  17.7963903   5.4658633  39.2800393
  16.8927983   5.7288833  39.1052053  18.2804523   5.7369803  38.5000353
  34.3056953   6.1882623  44.5576593  34.8294433   5.6945273  43.9266763
  34.8916373   6.3232983  45.3024163  34.4846673   6.2722493  48.0796143
  33.5349383   6.2386033  48.1941133  34.6659683   7.1822603  47.8445913
  20.3391113   4.5224173  37.1894773  21.0482813   4.1007393  36.7042053
  19.6231053   4.5899403  36.5578123  33.7956923   5.4455973  40.4969003
  34.2916043   5.2126843  41.2817883  33.5972993   4.6067813  40.0806643
  35.2244083   4.0816923  43.0306683  35.1143363   3.9272963  43.9688953
  35.9851673   3.5537863  42.7882093  36.1134353   1.9124843  36.2712823
  37.0383663   1.7806023  36.0631113  36.0910143   1.9917663  37.2249273
  36.1872843   2.6835503  38.8969533  35.3924343   2.6180623  39.4262443
  36.3916123   3.6186143  38.8854883  33.1291263  16.7227053  42.8907923
  33.7250333  16.4011623  42.2142343  33.3869413  16.2498873  43.6821193
  21.0353833  13.1544963  53.0398553  20.9923463  12.7837873  53.9213013
  21.1664843  14.0922533  53.1800373  24.7359863  14.7104553  48.6408273
  24.4951223  14.9779113  47.7538793  25.6762503  14.8810283  48.6959133
  35.9964023  16.7298933  49.4418913  35.5022303  17.1267803  48.7246043
  35.3877313  16.1048143  49.8356193  20.8741863  16.1007213  50.1596333
  20.2802183  15.9691913  50.8986373  20.8665703  15.2645353  49.6938433
  33.6803473  17.3722353  46.7205653  33.2206443  18.1238163  46.3463673
  33.0515933  16.6528823  46.6620453  20.5054093  13.4665593  49.1104373
  19.7788153  12.8470883  49.0430323  20.5663243  13.8606203  48.2402453
  24.1099193  15.6810593  45.8953783  24.6264213  15.0697953  45.3702043
  24.7596573  16.1839373  46.3864793  26.8494693  16.5719083  46.7222763
  27.1372503  16.3173383  45.8455773  27.3617913  16.0196443  47.3128333
  18.7884093  16.7839983  42.3201133  18.6206133  16.1510663  43.0183023
  17.9218603  16.9899383  41.9695323  25.9525923   2.7296033  42.8135303
  25.1400433   2.3552923  42.4731183  26.4567563   1.9741113  43.1156493
  20.3946793  15.4773213  39.7651273  19.8694413  15.8581243  39.0613233
  20.3191373  16.1023983  40.4860983  26.9167053  17.4935183  54.0890963
  27.8434363  17.2579453  54.1326923  26.9017483  18.3207183  53.6076993
  35.1512113  17.0360753  41.0865213  35.3264303  16.3498493  40.4426133
  34.4533683  17.5607803  40.6941883  22.9939763  17.4255593  38.6400523
  23.7258583  17.1414873  38.0924413  23.2533433  17.1868873  39.5299903
  22.1554553  13.5420323  38.6446853  21.5263433  14.0105423  39.1932683
  22.2702383  12.6969543  39.0793043  33.4844613  16.7205043  53.9132003
  34.2769933  16.2254273  53.7057963  33.7777763  17.3995183  54.5207613
  29.6104273   7.5925983  24.7948053  29.5298323   6.6780593  24.5239763
  29.1968693   8.0893053  24.0887763  27.7422313   9.3705003  26.6757323
  26.9664413   8.8905443  26.9655893  28.3935243   8.6910653  26.5013483
  21.7588143   9.6824813  27.5533083  20.9273023   9.4273523  27.9529593
  22.3669123   9.7535583  28.2891003  31.7629743  13.7765193  25.4556453
  31.3011273  13.0052433  25.7843623  32.5755293  13.8031263  25.9608903
  21.7389403  13.7164903  27.7491103  22.0417443  12.8262643  27.5701323
  22.4832993  14.2735123  27.5213353  20.1680093   4.6426703  21.3375473
  19.2796793   4.9842673  21.2355353  20.4521283   4.4427023  20.4456303
  18.1313103   7.2432353  27.2215173  18.7029213   6.4754553  27.2218813
  18.1314643   7.5421113  26.3121783  27.9893053  16.0623203  25.0760443
  27.3704493  16.5180703  24.5054883  28.8444833  16.2174663  24.6750143
  27.1831303  12.0462193  26.6827483  27.1139583  11.1052133  26.5216613
  27.9451163  12.1363603  27.2550053  19.3737973   2.6516713  29.0084103
  19.1940813   1.7542463  29.2886863  18.9718053   3.1988583  29.6831053
  28.2136473   4.8532573  26.9096413  28.5901293   3.9804453  26.7970083
  28.1155983   5.1891273  26.0186853  22.3441483   3.2258203  22.3713853
  22.4508233   4.1261933  22.6782613  21.4333843   3.1776173  22.0808503
  31.9960593   2.3483013  23.8424753  32.8170213   1.8579583  23.8850233
  32.0294673   2.9380673  24.5956593  19.9924643   5.1477213  27.6166443
  20.6734753   5.4115583  28.2353843  19.6772693   4.3078083  27.9504453
  24.1849213   6.1944573  26.7039033  24.6927433   6.6925543  27.3444053
  24.7162453   5.4179773  26.5278393  36.2860143   4.3649763  30.4068383
  35.5812313   4.7531473  29.8883493  36.5518063   5.0600053  31.0089313
  28.8556403  10.9462443  22.4692353  28.2373673  11.4111893  21.9055073
  29.3679653  11.6389923  22.8861863  23.7188163  10.4738313  29.1475953
  23.3857543  11.1007233  29.7897023  23.8954843  11.0000193  28.3677623
  32.2322073   4.2883393  26.6152293  31.5277643   4.5768283  27.1955403
  32.5934233   5.0983503  26.2551853  22.1500643   2.5453093  28.9772903
  22.4917453   3.3895143  28.6826773  21.2116453   2.6936833  29.0938243
  22.9307263  12.4419113  30.9625133  23.5481263  13.1170193  30.6809583
  22.0700383  12.8507093  30.8712633  18.2239603  11.6318973  19.8431983
  17.8467583  12.1206073  19.1116883  18.4812673  12.3044253  20.4738513
  33.8484853  13.9058523  28.8779773  33.1648373  14.5757633  28.8696443
  34.3879143  14.1039173  28.1124633  35.3008993   3.7338183  27.0061503
  34.3533903   3.7677163  27.1376933  35.6258983   4.5477133  27.3910863
  31.3843593  15.7502653  27.5924953  31.3970753  15.3464943  26.7247213
  30.8318813  16.5249943  27.4886383  32.6789013  12.4718873  22.6815123
  32.5685343  11.5293203  22.8064543  32.6757263  12.8334513  23.5677883
  30.7829033  10.6532493  28.9207563  31.1997823  10.4392603  28.0861023
  31.5068853  10.9105283  29.4916183  28.2209293   8.0984193  22.0377613
  27.2938573   8.0321573  22.2666083  28.3734113   9.0364323  21.9232853
  28.2078373   4.3701193  19.0344773  27.2682043   4.5315153  19.1197233
  28.5261633   5.0886873  18.4880763  34.7291133   9.0519713  29.0123803
  33.9009763   9.1212803  28.5373933  35.3241613   9.6374023  28.5439633
  32.2506583   9.6604493  22.5412863  31.6319003   9.3224043  21.8939163
  32.2331033   9.0164253  23.2492053  31.6933143   5.8389033  29.9578673
  31.2804323   6.6642743  30.2118663  30.9609093   5.2534073  29.7655033
  23.8265933   8.6248933  24.8197343  23.4222933   7.9126183  24.3243243
  23.9129053   8.2802173  25.7085383  24.2947633  12.3116493  26.9836553
  23.9975923  11.7061963  26.3044333  25.2447453  12.3493803  26.8725913
  22.5394553   5.3992143  28.5996383  23.0909143   5.5087483  27.8249633
  23.0538063   5.7729743  29.3151613  32.3833243  15.8848363  30.6459653
  31.9063803  16.6920553  30.4532263  31.6995033  15.2326693  30.7985863
  23.3866063  12.0498183  33.6344353  22.4894593  12.2738153  33.8817753
  23.4118933  12.1733123  32.6855753  30.4271283   8.8991303  19.5485613
  30.8664563   8.0613733  19.4023433  31.1399703   9.5320703  19.6349753
  22.2137283   8.9211503  32.2101723  22.0745053   9.7934303  32.5789123
  21.3318643   8.5784313  32.0649663  28.5366663  13.8387373  23.5166853
  28.9762573  14.5811703  23.1022243  28.4753553  14.0813943  24.4405813
  24.0117633  14.8633203  34.4186873  23.9833063  15.2676153  33.5515303
  23.8482603  13.9343563  34.2558473  20.5270563   7.5193913  22.3203993
  20.4068163   8.2456003  21.7085263  20.2171453   6.7496823  21.8431903
  35.9632453  15.6460303  35.7151043  36.4392173  16.1243193  36.3940123
  36.5839613  15.5777793  34.9896543  18.1655933  10.6909053  28.1272633
  18.2436353  10.8257823  27.1828353  18.7797613   9.9824943  28.3200753
  19.4103563  12.3909243  24.5378813  19.0031643  12.5323833  23.6832413
  20.3016573  12.1069403  24.3350023  35.3665703  12.8373153  32.8751053
  35.4928763  12.5985033  31.9568233  35.4087083  12.0057693  33.3473133
  29.2282443  16.5401153  31.4445863  29.7427113  16.4509163  32.2468293
  28.3851523  16.8860853  31.7373773  31.2036843  16.8256493  20.8729863
  31.0437983  16.5359433  21.7711693  31.0383553  16.0496623  20.3375093
  23.6825223  16.6055023  22.6501483  23.5067703  15.6890563  22.4369283
  22.8280963  16.9642313  22.8899283  30.9062973  14.3344053  19.4327863
  30.2128133  14.3321343  18.7730143  31.6485833  13.9103373  19.0022033
  30.4712903  15.9606763  23.5076353  30.9269853  15.1796143  23.8214973
  30.8105423  16.6713583  24.0517533  35.2189713   4.8905613  33.8400793
  34.6033983   5.3985283  33.3116253  34.8986133   3.9903943  33.7826733
  18.2215453  11.7323223  30.6667093  18.3846493  11.2628583  29.8486463
  18.6867903  11.2246783  31.3315933  27.2804033   3.7297503  31.3062983
  26.8183403   3.9380523  32.1182923  26.8782143   2.9156853  31.0033653
  32.2808543   4.9506453  32.4359643  31.4302133   4.6512203  32.7568713
  32.1210333   5.1948463  31.5243463  29.3758253   6.4508203  34.5358433
  29.7011663   5.6171953  34.1960663  30.1638583   6.9736723  34.6836763
  22.7848443   5.9862553  23.4308913  22.5589363   5.7699723  24.3355533
  22.0040973   6.4191013  23.0854883  30.0146203   5.9925923  22.0299563
  29.4155093   6.7161723  21.8463183  30.5625813   5.9302703  21.2476013
  25.2247653   6.8848133  34.0969183  25.1291253   5.9442863  33.9469583
  26.0679633   7.1063203  33.7017253  28.6211073   4.6289463  24.0602843
  29.0140643   4.9461663  23.2471533  28.9827923   3.7501343  24.1747363
  20.3558193   3.2961803  32.2502963  19.9621583   4.1437013  32.4575743
  19.6676593   2.6588173  32.4411603  26.9303243   3.3796773  35.3199703
  26.2401563   3.1868973  35.9545793  27.6735543   3.6631413  35.8524003
  17.8445473   5.1610383  17.4935763  17.7620143   6.1041143  17.6350753
  17.4928533   5.0185293  16.6148113  29.2066213   7.2195213  28.1553623
  28.4747333   7.7282023  28.5043723  28.8090553   6.4025193  27.8542403
  25.6443603   3.8949413  26.5606113  25.6479663   3.4539363  25.7110653
  26.5394723   4.2166743  26.6677933  21.4945983   3.7775903  25.5200323
  21.1546033   4.2551133  26.2767373  20.7323303   3.3241023  25.1601423
  25.7063753   4.8961493  19.5512873  25.8276573   4.8547973  20.4998693
  25.3212263   5.7585643  19.3959603  29.6692123   2.6728893  27.5676563
  29.6864863   3.1237543  28.4118413  29.4207703   1.7734533  27.7810003
  24.7185253   7.2062633  18.9496173  24.1502153   6.7580883  18.3232083
  25.4274253   7.5655413  18.4161323  19.7954433  11.1074653  32.8262903
  19.4109223  10.4668323  33.4245863  20.1066623  11.8110773  33.3957633
  25.9451573   7.9551193  28.3071523  26.3121703   7.4809763  29.0532863
  25.7556633   8.8292763  28.6479863  18.8092063   2.6994883  24.4364993
  18.5238983   2.3350553  25.2743613  18.7470923   1.9675343  23.8228133
  23.7350943   6.9959833  30.6255733  23.4308013   7.8751813  30.8506093
  24.6897403   7.0559623  30.6613173  22.2632733  11.2020823  21.2222583
  21.4894993  10.6618443  21.0621303  22.9927363  10.6827433  20.8840343
  33.0220713  10.1986183  27.0148973  33.7419833  10.6941473  26.6245083
  32.8202533   9.5204073  26.3702843  28.4039513  10.2695243  32.9017973
  28.3376823   9.3490913  32.6475563  27.7744653  10.3670683  33.6162613
  31.1979043   5.9643793  19.4540523  32.0858663   6.2761023  19.2791863
  31.1684133   5.0916043  19.0621103  22.3070133  10.8701203  24.8601393
  22.8248803  10.0669463  24.8058283  21.8554153  10.8080343  25.7018223
  27.1939633  12.1367483  20.1328693  27.5355333  12.8809713  19.6372013
  26.3652343  12.4498603  20.4953523  19.7914673   7.8362573  31.7727093
  19.4329613   8.5016423  32.3600433  19.4969233   7.0046123  32.1439713
  22.9927793   8.2946813  34.6566643  22.6927933   8.4403993  33.7594463
  23.7639033   7.7352103  34.5640033  28.3356243  13.0915813  32.6521773
  28.3500783  12.1596773  32.4340683  27.6281343  13.1775573  33.2911543
  33.4693313   7.2755633  18.9220383  33.3857033   7.7069853  18.0716823
  34.1887503   7.7353983  19.3547203  34.5467453   9.7323153  31.9990353
  33.8215643  10.3251933  31.8019743  35.0742913   9.7246693  31.2003723
  34.4980563  14.1297893  21.6502513  33.8556723  13.4753513  21.9246233
  34.1111223  14.5352983  20.8743183  30.0767043  11.4583323  25.4974203
  30.4290863  10.8611453  24.8375573  29.1929373  11.1327553  25.6682453
  26.1630323  12.2181013  22.9044613  26.8501453  12.7650223  23.2852203
  25.3762743  12.7621743  22.9394223  18.3022723   7.8353833  18.3961693
  19.1717573   8.1178633  18.6797613  17.8113043   8.6489703  18.2810503
  25.4657533   9.2227043  22.5169973  25.9220313  10.0332293  22.7430163
  25.1145743   8.9050183  23.3488463  27.7690143  14.7333383  29.7462273
  28.4132363  14.9392763  30.4235693  28.1319583  13.9721783  29.2933123
  29.0422223  12.7365733  28.4639723  29.6844453  12.0358893  28.5771893
  29.5671573  13.5164173  28.2836613  32.8877943  13.0214353  18.1878863
  32.6615523  12.3044793  18.7803503  32.4974143  12.7726793  17.3500613
  30.8159843  13.5360633  31.6675783  31.1516083  14.1227323  32.3453703
  29.8960183  13.4053343  31.8973573  18.6693973  17.0481213  18.9623323
  19.0291613  17.6470553  18.3080593  18.5286313  17.5941103  19.7358353
  32.4694193  10.9386293  19.8493023  32.1815893  11.3998983  20.6370903
  33.2646363  10.4784063  20.1177243  18.6535833  15.3136073  33.4365723
  18.7626953  14.3730813  33.2961113  18.0016393  15.5790823  32.7879453
  26.6448423  13.5851963  34.8363843  26.3245293  12.8661203  35.3809533
  25.9706783  14.2607033  34.9099903  24.6862593  14.4312413  19.7796993
  24.6772693  15.1642103  19.1641503  23.7660953  14.1843993  19.8723953
  20.2869233   9.6527303  20.5243753  19.6797183  10.3926203  20.5339053
  20.7618583   9.7426663  19.6981953  29.8602023   3.8178123  30.2000643
  30.2282843   2.9973333  30.5280213  29.0000223   3.8780013  30.6156293
  33.2264053   2.7735063  21.0088203  32.5977213   2.8780733  20.2946433
  32.7315973   2.9931843  21.7982083  27.6722193  14.4940653  18.4422183
  27.7734173  14.2904643  17.5124163  26.7723933  14.2398933  18.6469963
  25.1948083   5.0521013  22.4246083  24.4864233   5.5207353  22.8659693
  25.4792563   4.3943023  23.0591273  26.8204013   6.4717713  30.4238613
  27.3189263   6.9463533  31.0890463  26.9626963   5.5481233  30.6308643
  29.2263513   1.7771673  23.8641873  29.1031293   1.7957803  22.9151383
  30.1748073   1.8250613  23.9840273  26.3140303  17.0126973  23.1369853
  26.5681803  16.9748363  22.2149223  25.3652783  16.8860303  23.1298103
  23.3983103   3.3606093  19.7996793  24.2473633   3.7976243  19.7336983
  23.0314373   3.6726353  20.6268853  34.0270873   2.6885673  31.2667003
  33.5244473   3.4291073  31.6060813  34.8427533   3.0769673  30.9503793
  32.3192883   7.9318853  24.7128363  31.3783023   7.9469083  24.8876053
  32.6336953   7.1454813  25.1588663  22.2974523   9.6138453  18.2732323
  23.0637793   9.5019813  18.8357753  22.3749213   8.9176423  17.6209093
  20.9921283   7.0463523  18.9565213  21.0724873   6.0991033  19.0682613
  21.8841033   7.3770403  19.0625873  34.3218463  15.1027703  26.3882623
  34.4465883  15.9258873  26.8606433  35.1884023  14.8918433  26.0406773
  21.7935993  17.1958913  26.0599753  22.5298473  16.6474373  26.3308323
  22.1776913  18.0614923  25.9205743  18.6781473  13.2632483  21.9341263
  17.7521253  13.5053623  21.9246673  19.1437903  14.0906743  21.8126013
  20.7994273  16.3804983  35.2485333  21.6007003  16.7017033  35.6620733
  20.2846093  16.0200563  35.9705243  24.9038303  16.3689223  17.8825323
  25.6966913  16.6578053  17.4307113  24.3842653  15.9381393  17.2037803
  29.6358903  12.4884853  35.1960743  29.0297063  12.5116453  34.4556493
  29.3313013  11.7567893  35.7327993  31.0659273  16.2165143  33.8070153
  32.0181023  16.1323163  33.7570393  30.9187493  16.8806853  34.4803943
  33.9568473  15.5959353  19.3062063  33.6709983  15.1824493  18.4916243
  33.7588023  16.5247063  19.1862583  18.5192083   8.8678443  34.1921383
  19.0231103   8.2885723  34.7637613  17.7799503   9.1518673  34.7297753
  25.4215703  11.5892633  17.7467673  25.3166343  10.9744983  18.4729053
  25.2539923  11.0658523  16.9630683  25.5730023  10.2749433  33.7256903
  24.8075693  10.8434433  33.6411573  25.7545983   9.9825643  32.8325133
  28.6618433  10.6512663  18.3509663  28.1128533  11.0981963  18.9952403
  29.2837693  10.1461913  18.8747333  32.7153373  12.0054763  34.2831923
  33.4562843  12.3430523  33.7799383  31.9526053  12.1746823  33.7301693
  20.5515163   7.0108033  35.0871453  20.5920503   6.7121903  35.9956683
  21.4060663   7.4115643  34.9278973  24.3293553   9.6103583  20.2474963
  24.7509973   9.4443453  21.0906353  24.4544393   8.8003813  19.7530103
  22.4920973   5.5900133  33.0545943  21.9617433   5.0991083  32.4269283
  23.1609043   6.0184333  32.5203873  26.8421193   8.6341193  17.4952063
  27.3626853   7.9190213  17.1293213  27.4889593   9.2727063  17.7952573
  31.3899033  10.0569593  32.8187133  31.8040053  10.2114673  33.6677553
  30.4550033  10.1824813  32.9812913  31.8621203   7.3965753  34.8226283
  32.4441973   6.6418073  34.7346763  32.0382973   7.9273193  34.0457763
  22.9793273   2.5562503  33.1343233  22.8850143   1.9383253  32.4094103
  22.3990663   3.2828793  32.9073143  26.1514263  10.0090073  30.7883063
  26.5702373  10.8522803  30.6159303  25.2322893  10.1462113  30.5589843
  28.4878163   7.7406253  32.1720903  28.6074373   7.1447393  32.9115743
  29.3472163   7.7775943  31.7522203  30.8266063   8.2943443  30.7483413
  30.3001283   8.8186063  30.1448553  31.1697403   8.9270833  31.3793143
  23.2252453   5.6836813  17.1933123  23.0241513   4.8204173  17.5546463
  23.0544503   5.5970173  16.2554723  24.0021683  16.3143083  31.9040793
  23.4642773  17.0389143  31.5849493  24.2555643  15.8373423  31.1138133
  25.2546933   4.2827603  33.4296723  25.8446623   3.9743453  34.1174543
  24.4367173   3.8107353  33.5856623  30.0740363   3.8993413  33.6629743
  29.3855883   3.2374953  33.5979733  30.7946383   3.4531683  34.1078203
  22.0235253   2.7837433  17.1811003  22.3261153   2.7904863  16.2730153
  22.7629843   2.4335293  17.6778663  26.8583893  17.5494293  32.1627443
  26.7842593  18.4529433  32.4699813  25.9562733  17.2306193  32.1349513
  27.4069223  16.7152803  19.7853803  28.3020013  17.0537773  19.8072563
  27.4386853  15.9932213  19.1578083  21.0465383  12.0879853  18.0140803
  21.4840253  12.6309523  18.6698383  21.5313113  11.2626803  18.0237143
  18.2611183  14.8768883  25.4661063  18.5914193  14.0089943  25.2339703
  18.6902183  15.0827403  26.2966023  22.8573103  13.2077893  23.1263033
  22.5568643  13.0842863  24.0266943  22.7510593  12.3486483  22.7178763
  18.7501393  15.7439473  28.2042693  18.3132383  15.9240273  29.0366843
  19.3179073  16.5014093  28.0624413  34.3863573  15.2456473  32.4920003
  33.7865563  15.3049033  31.7483923  34.5157473  14.3061453  32.6216853
  35.6265023  12.9874293  17.8289713  34.7957983  13.0550943  18.2996943
  35.8036853  13.8778413  17.5256573  35.0821483   9.7321773  20.3323913
  35.8440393  10.3018423  20.4383603  35.0975853   9.1648973  21.1032223
  18.5825823   8.2559703  24.5631573  17.9274663   7.9871343  23.9191273
  19.4203773   8.1464183  24.1133553  36.0881453  10.5871873  25.1765843
  36.4590283   9.8039193  24.7701813  36.7283383  11.2760973  24.9983143
  33.0715213  11.9708453  30.5896163  32.2575053  12.4005613  30.8521953
  33.4789413  12.5826863  29.9765213  35.1340653  10.0256143  17.4896433
  35.4089493  10.9335023  17.3615653  34.9451393   9.9618673  18.4258423
  31.5316263   3.0500993  18.7850063  31.9501143   2.8631973  17.9446723
  31.2252323   2.1980043  19.0952993  35.0305993   7.9625133  22.4825863
  34.6549593   7.1953063  22.0507153  34.3009113   8.3447833  22.9700793
  19.6201753   8.6412273  29.1034913  19.9874793   8.5539673  29.9830933
  19.0512573   7.8778823  29.0041773  34.4205613   7.1096653  32.1165383
  34.1891703   6.8809403  31.2163333  34.6810163   8.0296203  32.0710273
  19.1717753   5.5521363  33.0093333  18.2773803   5.5188123  33.3487043
  19.7115303   5.7508153  33.7744583  17.7963903   5.4658633  20.5056903
  16.8927983   5.7288833  20.3308563  18.2804523   5.7369803  19.7256863
  34.3056953   6.1882623  25.7833103  34.8294433   5.6945273  25.1523273
  34.8916373   6.3232983  26.5280673  34.4846673   6.2722493  29.3052653
  33.5349383   6.2386033  29.4197643  34.6659683   7.1822603  29.0702423
  20.3391113   4.5224173  18.4151283  21.0482813   4.1007393  17.9298563
  19.6231053   4.5899403  17.7834633  33.7956923   5.4455973  21.7225513
  34.2916043   5.2126843  22.5074393  33.5972993   4.6067813  21.3063153
  35.2244083   4.0816923  24.2563193  35.1143363   3.9272963  25.1945463
  35.9851673   3.5537863  24.0138603  36.1134353   1.9124843  17.4969333
  37.0383663   1.7806023  17.2887623  36.0910143   1.9917663  18.4505783
  36.1872843   2.6835503  20.1226043  35.3924343   2.6180623  20.6518953
  36.3916123   3.6186143  20.1111393  33.1291263  16.7227053  24.1164433
  33.7250333  16.4011623  23.4398853  33.3869413  16.2498873  24.9077703
  21.0353833  13.1544963  34.2655063  20.9923463  12.7837873  35.1469523
  21.1664843  14.0922533  34.4056883  24.7359863  14.7104553  29.8664783
  24.4951223  14.9779113  28.9795303  25.6762503  14.8810283  29.9215643
  35.9964023  16.7298933  30.6675423  35.5022303  17.1267803  29.9502553
  35.3877313  16.1048143  31.0612703  20.8741863  16.1007213  31.3852843
  20.2802183  15.9691913  32.1242883  20.8665703  15.2645353  30.9194943
  33.6803473  17.3722353  27.9462163  33.2206443  18.1238163  27.5720183
  33.0515933  16.6528823  27.8876963  20.5054093  13.4665593  30.3360883
  19.7788153  12.8470883  30.2686833  20.5663243  13.8606203  29.4658963
  24.1099193  15.6810593  27.1210293  24.6264213  15.0697953  26.5958553
  24.7596573  16.1839373  27.6121303  26.8494693  16.5719083  27.9479273
  27.1372503  16.3173383  27.0712283  27.3617913  16.0196443  28.5384843
  18.7884093  16.7839983  23.5457643  18.6206133  16.1510663  24.2439533
  17.9218603  16.9899383  23.1951833  25.9525923   2.7296033  24.0391813
  25.1400433   2.3552923  23.6987693  26.4567563   1.9741113  24.3413003
  20.3946793  15.4773213  20.9907783  19.8694413  15.8581243  20.2869743
  20.3191373  16.1023983  21.7117493  26.9167053  17.4935183  35.3147473
  27.8434363  17.2579453  35.3583433  26.9017483  18.3207183  34.8333503
  35.1512113  17.0360753  22.3121723  35.3264303  16.3498493  21.6682643
  34.4533683  17.5607803  21.9198393  22.9939763  17.4255593  19.8657033
  23.7258583  17.1414873  19.3180923  23.2533433  17.1868873  20.7556413
  22.1554553  13.5420323  19.8703363  21.5263433  14.0105423  20.4189193
  22.2702383  12.6969543  20.3049553  33.4844613  16.7205043  35.1388513
  34.2769933  16.2254273  34.9314473  33.7777763  17.3995183  35.7464123
  29.6104273   7.5925983   6.0204563  29.5298323   6.6780593   5.7496273
  29.1968693   8.0893053   5.3144273  27.7422313   9.3705003   7.9013833
  26.9664413   8.8905443   8.1912403  28.3935243   8.6910653   7.7269993
  21.7588143   9.6824813   8.7789593  20.9273023   9.4273523   9.1786103
  22.3669123   9.7535583   9.5147513  31.7629743  13.7765193   6.6812963
  31.3011273  13.0052433   7.0100133  32.5755293  13.8031263   7.1865413
  21.7389403  13.7164903   8.9747613  22.0417443  12.8262643   8.7957833
  22.4832993  14.2735123   8.7469863  18.1313103   7.2432353   8.4471683
  18.7029213   6.4754553   8.4475323  18.1314643   7.5421113   7.5378293
  27.9893053  16.0623203   6.3016953  27.3704493  16.5180703   5.7311393
  28.8444833  16.2174663   5.9006653  27.1831303  12.0462193   7.9083993
  27.1139583  11.1052133   7.7473123  27.9451163  12.1363603   8.4806563
  19.3737973   2.6516713  10.2340613  19.1940813   1.7542463  10.5143373
  18.9718053   3.1988583  10.9087563  28.2136473   4.8532573   8.1352923
  28.5901293   3.9804453   8.0226593  28.1155983   5.1891273   7.2443363
  22.3441483   3.2258203   3.5970363  22.4508233   4.1261933   3.9039123
  21.4333843   3.1776173   3.3065013  31.9960593   2.3483013   5.0681263
  32.8170213   1.8579583   5.1106743  32.0294673   2.9380673   5.8213103
  19.9924643   5.1477213   8.8422953  20.6734753   5.4115583   9.4610353
  19.6772693   4.3078083   9.1760963  24.1849213   6.1944573   7.9295543
  24.6927433   6.6925543   8.5700563  24.7162453   5.4179773   7.7534903
  36.2860143   4.3649763  11.6324893  35.5812313   4.7531473  11.1140003
  36.5518063   5.0600053  12.2345823  28.8556403  10.9462443   3.6948863
  28.2373673  11.4111893   3.1311583  29.3679653  11.6389923   4.1118373
  23.7188163  10.4738313  10.3732463  23.3857543  11.1007233  11.0153533
  23.8954843  11.0000193   9.5934133  32.2322073   4.2883393   7.8408803
  31.5277643   4.5768283   8.4211913  32.5934233   5.0983503   7.4808363
  22.1500643   2.5453093  10.2029413  22.4917453   3.3895143   9.9083283
  21.2116453   2.6936833  10.3194753  22.9307263  12.4419113  12.1881643
  23.5481263  13.1170193  11.9066093  22.0700383  12.8507093  12.0969143
  33.8484853  13.9058523  10.1036283  33.1648373  14.5757633  10.0952953
  34.3879143  14.1039173   9.3381143  35.3008993   3.7338183   8.2318013
  34.3533903   3.7677163   8.3633443  35.6258983   4.5477133   8.6167373
  31.3843593  15.7502653   8.8181463  31.3970753  15.3464943   7.9503723
  30.8318813  16.5249943   8.7142893  32.6789013  12.4718873   3.9071633
  32.5685343  11.5293203   4.0321053  32.6757263  12.8334513   4.7934393
  30.7829033  10.6532493  10.1464073  31.1997823  10.4392603   9.3117533
  31.5068853  10.9105283  10.7172693  28.2209293   8.0984193   3.2634123
  27.2938573   8.0321573   3.4922593  28.3734113   9.0364323   3.1489363
  34.7291133   9.0519713  10.2380313  33.9009763   9.1212803   9.7630443
  35.3241613   9.6374023   9.7696143  32.2506583   9.6604493   3.7669373
  31.6319003   9.3224043   3.1195673  32.2331033   9.0164253   4.4748563
  31.6933143   5.8389033  11.1835183  31.2804323   6.6642743  11.4375173
  30.9609093   5.2534073  10.9911543  23.8265933   8.6248933   6.0453853
  23.4222933   7.9126183   5.5499753  23.9129053   8.2802173   6.9341893
  24.2947633  12.3116493   8.2093063  23.9975923  11.7061963   7.5300843
  25.2447453  12.3493803   8.0982423  22.5394553   5.3992143   9.8252893
  23.0909143   5.5087483   9.0506143  23.0538063   5.7729743  10.5408123
  32.3833243  15.8848363  11.8716163  31.9063803  16.6920553  11.6788773
  31.6995033  15.2326693  12.0242373  23.3866063  12.0498183  14.8600863
  22.4894593  12.2738153  15.1074263  23.4118933  12.1733123  13.9112263
  22.2137283   8.9211503  13.4358233  22.0745053   9.7934303  13.8045633
  21.3318643   8.5784313  13.2906173  28.5366663  13.8387373   4.7423363
  28.9762573  14.5811703   4.3278753  28.4753553  14.0813943   5.6662323
  24.0117633  14.8633203  15.6443383  23.9833063  15.2676153  14.7771813
  23.8482603  13.9343563  15.4814983  20.5270563   7.5193913   3.5460503
  20.4068163   8.2456003   2.9341773  20.2171453   6.7496823   3.0688413
  35.9632453  15.6460303  16.9407553  36.4392173  16.1243193  17.6196633
  36.5839613  15.5777793  16.2153053  18.1655933  10.6909053   9.3529143
  18.2436353  10.8257823   8.4084863  18.7797613   9.9824943   9.5457263
  19.4103563  12.3909243   5.7635323  19.0031643  12.5323833   4.9088923
  20.3016573  12.1069403   5.5606533  35.3665703  12.8373153  14.1007563
  35.4928763  12.5985033  13.1824743  35.4087083  12.0057693  14.5729643
  29.2282443  16.5401153  12.6702373  29.7427113  16.4509163  13.4724803
  28.3851523  16.8860853  12.9630283  23.6825223  16.6055023   3.8757993
  23.5067703  15.6890563   3.6625793  22.8280963  16.9642313   4.1155793
  30.4712903  15.9606763   4.7332863  30.9269853  15.1796143   5.0471483
  30.8105423  16.6713583   5.2774043  35.2189713   4.8905613  15.0657303
  34.6033983   5.3985283  14.5372763  34.8986133   3.9903943  15.0083243
  18.2215453  11.7323223  11.8923603  18.3846493  11.2628583  11.0742973
  18.6867903  11.2246783  12.5572443  27.2804033   3.7297503  12.5319493
  26.8183403   3.9380523  13.3439433  26.8782143   2.9156853  12.2290163
  32.2808543   4.9506453  13.6616153  31.4302133   4.6512203  13.9825223
  32.1210333   5.1948463  12.7499973  29.3758253   6.4508203  15.7614943
  29.7011663   5.6171953  15.4217173  30.1638583   6.9736723  15.9093273
  22.7848443   5.9862553   4.6565423  22.5589363   5.7699723   5.5612043
  22.0040973   6.4191013   4.3111393  30.0146203   5.9925923   3.2556073
  29.4155093   6.7161723   3.0719693  30.5625813   5.9302703   2.4732523
  25.2247653   6.8848133  15.3225693  25.1291253   5.9442863  15.1726093
  26.0679633   7.1063203  14.9273763  28.6211073   4.6289463   5.2859353
  29.0140643   4.9461663   4.4728043  28.9827923   3.7501343   5.4003873
  20.3558193   3.2961803  13.4759473  19.9621583   4.1437013  13.6832253
  19.6676593   2.6588173  13.6668113  26.9303243   3.3796773  16.5456213
  26.2401563   3.1868973  17.1802303  27.6735543   3.6631413  17.0780513
  29.2066213   7.2195213   9.3810133  28.4747333   7.7282023   9.7300233
  28.8090553   6.4025193   9.0798913  25.6443603   3.8949413   7.7862623
  25.6479663   3.4539363   6.9367163  26.5394723   4.2166743   7.8934443
  21.4945983   3.7775903   6.7456833  21.1546033   4.2551133   7.5023883
  20.7323303   3.3241023   6.3857933  29.6692123   2.6728893   8.7933073
  29.6864863   3.1237543   9.6374923  29.4207703   1.7734533   9.0066513
  19.7954433  11.1074653  14.0519413  19.4109223  10.4668323  14.6502373
  20.1066623  11.8110773  14.6214143  25.9451573   7.9551193   9.5328033
  26.3121703   7.4809763  10.2789373  25.7556633   8.8292763   9.8736373
  18.8092063   2.6994883   5.6621503  18.5238983   2.3350553   6.5000123
  18.7470923   1.9675343   5.0484643  23.7350943   6.9959833  11.8512243
  23.4308013   7.8751813  12.0762603  24.6897403   7.0559623  11.8869683
  22.2632733  11.2020823   2.4479093  21.4894993  10.6618443   2.2877813
  22.9927363  10.6827433   2.1096853  33.0220713  10.1986183   8.2405483
  33.7419833  10.6941473   7.8501593  32.8202533   9.5204073   7.5959353
  28.4039513  10.2695243  14.1274483  28.3376823   9.3490913  13.8732073
  27.7744653  10.3670683  14.8419123  22.3070133  10.8701203   6.0857903
  22.8248803  10.0669463   6.0314793  21.8554153  10.8080343   6.9274733
  19.7914673   7.8362573  12.9983603  19.4329613   8.5016423  13.5856943
  19.4969233   7.0046123  13.3696223  22.9927793   8.2946813  15.8823153
  22.6927933   8.4403993  14.9850973  23.7639033   7.7352103  15.7896543
  28.3356243  13.0915813  13.8778283  28.3500783  12.1596773  13.6597193
  27.6281343  13.1775573  14.5168053  34.5467453   9.7323153  13.2246863
  33.8215643  10.3251933  13.0276253  35.0742913   9.7246693  12.4260233
  34.4980563  14.1297893   2.8759023  33.8556723  13.4753513   3.1502743
  34.1111223  14.5352983   2.0999693  30.0767043  11.4583323   6.7230713
  30.4290863  10.8611453   6.0632083  29.1929373  11.1327553   6.8938963
  26.1630323  12.2181013   4.1301123  26.8501453  12.7650223   4.5108713
  25.3762743  12.7621743   4.1650733  25.4657533   9.2227043   3.7426483
  25.9220313  10.0332293   3.9686673  25.1145743   8.9050183   4.5744973
  27.7690143  14.7333383  10.9718783  28.4132363  14.9392763  11.6492203
  28.1319583  13.9721783  10.5189633  29.0422223  12.7365733   9.6896233
  29.6844453  12.0358893   9.8028403  29.5671573  13.5164173   9.5093123
  30.8159843  13.5360633  12.8932293  31.1516083  14.1227323  13.5710213
  29.8960183  13.4053343  13.1230083  18.6535833  15.3136073  14.6622233
  18.7626953  14.3730813  14.5217623  18.0016393  15.5790823  14.0135963
  26.6448423  13.5851963  16.0620353  26.3245293  12.8661203  16.6066043
  25.9706783  14.2607033  16.1356413  29.8602023   3.8178123  11.4257153
  30.2282843   2.9973333  11.7536723  29.0000223   3.8780013  11.8412803
  25.1948083   5.0521013   3.6502593  24.4864233   5.5207353   4.0916203
  25.4792563   4.3943023   4.2847783  26.8204013   6.4717713  11.6495123
  27.3189263   6.9463533  12.3146973  26.9626963   5.5481233  11.8565153
  29.2263513   1.7771673   5.0898383  29.1031293   1.7957803   4.1407893
  30.1748073   1.8250613   5.2096783  26.3140303  17.0126973   4.3626363
  26.5681803  16.9748363   3.4405733  25.3652783  16.8860303   4.3554613
  34.0270873   2.6885673  12.4923513  33.5244473   3.4291073  12.8317323
  34.8427533   3.0769673  12.1760303  32.3192883   7.9318853   5.9384873
  31.3783023   7.9469083   6.1132563  32.6336953   7.1454813   6.3845173
  34.3218463  15.1027703   7.6139133  34.4465883  15.9258873   8.0862943
  35.1884023  14.8918433   7.2663283  21.7935993  17.1958913   7.2856263
  22.5298473  16.6474373   7.5564833  22.1776913  18.0614923   7.1462253
  18.6781473  13.2632483   3.1597773  17.7521253  13.5053623   3.1503183
  19.1437903  14.0906743   3.0382523  20.7994273  16.3804983  16.4741843
  21.6007003  16.7017033  16.8877243  20.2846093  16.0200563  17.1961753
  29.6358903  12.4884853  16.4217253  29.0297063  12.5116453  15.6813003
  29.3313013  11.7567893  16.9584503  31.0659273  16.2165143  15.0326663
  32.0181023  16.1323163  14.9826903  30.9187493  16.8806853  15.7060453
  18.5192083   8.8678443  15.4177893  19.0231103   8.2885723  15.9894123
  17.7799503   9.1518673  15.9554263  25.5730023  10.2749433  14.9513413
  24.8075693  10.8434433  14.8668083  25.7545983   9.9825643  14.0581643
  32.7153373  12.0054763  15.5088433  33.4562843  12.3430523  15.0055893
  31.9526053  12.1746823  14.9558203  20.5515163   7.0108033  16.3127963
  20.5920503   6.7121903  17.2213193  21.4060663   7.4115643  16.1535483
  22.4920973   5.5900133  14.2802453  21.9617433   5.0991083  13.6525793
  23.1609043   6.0184333  13.7460383  31.3899033  10.0569593  14.0443643
  31.8040053  10.2114673  14.8934063  30.4550033  10.1824813  14.2069423
  31.8621203   7.3965753  16.0482793  32.4441973   6.6418073  15.9603273
  32.0382973   7.9273193  15.2714273  22.9793273   2.5562503  14.3599743
  22.8850143   1.9383253  13.6350613  22.3990663   3.2828793  14.1329653
  26.1514263  10.0090073  12.0139573  26.5702373  10.8522803  11.8415813
  25.2322893  10.1462113  11.7846353  28.4878163   7.7406253  13.3977413
  28.6074373   7.1447393  14.1372253  29.3472163   7.7775943  12.9778713
  30.8266063   8.2943443  11.9739923  30.3001283   8.8186063  11.3705063
  31.1697403   8.9270833  12.6049653  24.0021683  16.3143083  13.1297303
  23.4642773  17.0389143  12.8106003  24.2555643  15.8373423  12.3394643
  25.2546933   4.2827603  14.6553233  25.8446623   3.9743453  15.3431053
  24.4367173   3.8107353  14.8113133  30.0740363   3.8993413  14.8886253
  29.3855883   3.2374953  14.8236243  30.7946383   3.4531683  15.3334713
  26.8583893  17.5494293  13.3883953  26.7842593  18.4529433  13.6956323
  25.9562733  17.2306193  13.3606023  18.2611183  14.8768883   6.6917573
  18.5914193  14.0089943   6.4596213  18.6902183  15.0827403   7.5222533
  22.8573103  13.2077893   4.3519543  22.5568643  13.0842863   5.2523453
  22.7510593  12.3486483   3.9435273  18.7501393  15.7439473   9.4299203
  18.3132383  15.9240273  10.2623353  19.3179073  16.5014093   9.2880923
  34.3863573  15.2456473  13.7176513  33.7865563  15.3049033  12.9740433
  34.5157473  14.3061453  13.8473363  18.5825823   8.2559703   5.7888083
  17.9274663   7.9871343   5.1447783  19.4203773   8.1464183   5.3390063
  36.0881453  10.5871873   6.4022353  36.4590283   9.8039193   5.9958323
  36.7283383  11.2760973   6.2239653  33.0715213  11.9708453  11.8152673
  32.2575053  12.4005613  12.0778463  33.4789413  12.5826863  11.2021723
  35.0305993   7.9625133   3.7082373  34.6549593   7.1953063   3.2763663
  34.3009113   8.3447833   4.1957303  19.6201753   8.6412273  10.3291423
  19.9874793   8.5539673  11.2087443  19.0512573   7.8778823  10.2298283
  34.4205613   7.1096653  13.3421893  34.1891703   6.8809403  12.4419843
  34.6810163   8.0296203  13.2966783  19.1717753   5.5521363  14.2349843
  18.2773803   5.5188123  14.5743553  19.7115303   5.7508153  15.0001093
  34.3056953   6.1882623   7.0089613  34.8294433   5.6945273   6.3779783
  34.8916373   6.3232983   7.7537183  34.4846673   6.2722493  10.5309163
  33.5349383   6.2386033  10.6454153  34.6659683   7.1822603  10.2958933
  33.7956923   5.4455973   2.9482023  34.2916043   5.2126843   3.7330903
  33.5972993   4.6067813   2.5319663  35.2244083   4.0816923   5.4819703
  35.1143363   3.9272963   6.4201973  35.9851673   3.5537863   5.2395113
  33.1291263  16.7227053   5.3420943  33.7250333  16.4011623   4.6655363
  33.3869413  16.2498873   6.1334213  21.0353833  13.1544963  15.4911573
  20.9923463  12.7837873  16.3726033  21.1664843  14.0922533  15.6313393
  24.7359863  14.7104553  11.0921293  24.4951223  14.9779113  10.2051813
  25.6762503  14.8810283  11.1472153  35.9964023  16.7298933  11.8931933
  35.5022303  17.1267803  11.1759063  35.3877313  16.1048143  12.2869213
  20.8741863  16.1007213  12.6109353  20.2802183  15.9691913  13.3499393
  20.8665703  15.2645353  12.1451453  33.6803473  17.3722353   9.1718673
  33.2206443  18.1238163   8.7976693  33.0515933  16.6528823   9.1133473
  20.5054093  13.4665593  11.5617393  19.7788153  12.8470883  11.4943343
  20.5663243  13.8606203  10.6915473  24.1099193  15.6810593   8.3466803
  24.6264213  15.0697953   7.8215063  24.7596573  16.1839373   8.8377813
  26.8494693  16.5719083   9.1735783  27.1372503  16.3173383   8.2968793
  27.3617913  16.0196443   9.7641353  18.7884093  16.7839983   4.7714153
  18.6206133  16.1510663   5.4696043  17.9218603  16.9899383   4.4208343
  25.9525923   2.7296033   5.2648323  25.1400433   2.3552923   4.9244203
  26.4567563   1.9741113   5.5669513  26.9167053  17.4935183  16.5403983
  27.8434363  17.2579453  16.5839943  26.9017483  18.3207183  16.0590013
  35.1512113  17.0360753   3.5378233  35.3264303  16.3498493   2.8939153
  34.4533683  17.5607803   3.1454903  33.4844613  16.7205043  16.3645023
  34.2769933  16.2254273  16.1570983  33.7777763  17.3995183  16.9720633
  10.8360783  63.9156453  62.3435033  10.7554833  63.0011063  62.0726743
  10.4225203  64.4123523  61.6374743   8.9678823  65.6935473  64.2244303
   8.1920923  65.2135913  64.5142873   9.6191753  65.0141123  64.0500463
   2.9844653  66.0055283  65.1020063   2.1529533  65.7503993  65.5016573
   3.5925633  66.0766053  65.8377983  12.9886253  70.0995663  63.0043433
  12.5267783  69.3282903  63.3330603  13.8011803  70.1261733  63.5095883
   2.9645913  70.0395373  65.2978083   3.2673953  69.1493113  65.1188303
   3.7089503  70.5965593  65.0700333   8.4087813  68.3692663  64.2314463
   8.3396093  67.4282603  64.0703593   9.1707673  68.4594073  64.8037033
   9.4392983  61.1763043  64.4583393   9.8157803  60.3034923  64.3457063
   9.3412493  61.5121743  63.5673833   3.5697993  59.5488673  59.9200833
   3.6764743  60.4492403  60.2269593   2.6590353  59.5006643  59.6295483
  13.2217103  58.6713483  61.3911733  14.0426723  58.1810053  61.4337213
  13.2551183  59.2611143  62.1443573   5.4105723  62.5175043  64.2526013
   5.9183943  63.0156013  64.8931033   5.9418963  61.7410243  64.0765373
  17.5116653  60.6880233  67.9555363  16.8068823  61.0761943  67.4370473
  17.7774573  61.3830523  68.5576293   3.6941823  57.1573603  68.5189433
   3.6960263  57.6745993  67.7135333   2.8646133  56.6803783  68.4959363
  10.0812913  67.2692913  60.0179333   9.4630183  67.7342363  59.4542053
  10.5936163  67.9620393  60.4348843   4.9444673  66.7968783  66.6962933
   4.6114053  67.4237703  67.3384003   5.1211353  67.3230663  65.9164603
  13.4578583  60.6113863  64.1639273  12.7534153  60.8998753  64.7442383
  13.8190743  61.4213973  63.8038833   3.3757153  58.8683563  66.5259883
   3.7173963  59.7125613  66.2313753   2.4372963  59.0167303  66.6425223
   4.1563773  68.7649583  68.5112113   4.7737773  69.4400663  68.2296563
   3.2956893  69.1737563  68.4199613  15.0741363  70.2288993  66.4266753
  14.3904883  70.8988103  66.4183423  15.6135653  70.4269643  65.6611613
  16.5265503  60.0568653  64.5548483  15.5790413  60.0907633  64.6863913
  16.8515493  60.8707603  64.9397843   7.0585043  56.3565833  62.8504473
   7.3660023  55.8012723  62.1339973   6.1285743  56.4910293  62.6677463
  13.9045523  68.7949343  60.2302103  13.7941853  67.8523673  60.3551523
  13.9013773  69.1564983  61.1164863  12.0085543  66.9762963  66.4694543
  12.4254333  66.7623073  65.6348003  12.7325363  67.2335753  67.0403163
   9.4465803  64.4214663  59.5864593   8.5195083  64.3552043  59.8153063
   9.5990623  65.3594793  59.4719833   9.4334883  60.6931663  56.5831753
   8.4938553  60.8545623  56.6684213   9.7518143  61.4117343  56.0367743
  15.9547643  65.3750183  66.5610783  15.1266273  65.4443273  66.0860913
  16.5498123  65.9604493  66.0926613  13.4763093  65.9834963  60.0899843
  12.8575513  65.6454513  59.4426143  13.4587543  65.3394723  60.7979033
  12.9189653  62.1619503  67.5065653  12.5060833  62.9873213  67.7605643
  12.1865603  61.5764543  67.3142013   5.0522443  64.9479403  62.3684323
   4.6479443  64.2356653  61.8730223   5.1385563  64.6032643  63.2572363
   5.5204143  68.6346963  64.5323533   5.2232433  68.0292433  63.8531313
   6.4703963  68.6724273  64.4212893   3.7651063  61.7222613  66.1483363
   4.3165653  61.8317953  65.3736613   4.2794573  62.0960213  66.8638593
  11.6527793  65.2221773  57.0972593  12.0921073  64.3844203  56.9510413
  12.3656213  65.8551173  57.1836733   9.7623173  70.1617843  61.0653833
  10.2019083  70.9042173  60.6509223   9.7010063  70.4044413  61.9892793
  15.2344933  56.4764583  55.4113633  14.9217593  56.5691413  56.3112703
  15.9957403  57.0545613  55.3611063  12.1319483  70.6574523  56.9814843
  11.4384643  70.6551813  56.3217123  12.8742343  70.2333843  56.5509013
   4.2190733  57.1859453  63.2514643   3.7758883  57.9668993  62.9199163
   4.7775723  57.5089343  63.9585583   8.5060543  60.0527973  68.8549963
   8.0439913  60.2610993  69.6669903   8.1038653  59.2387323  68.5520633
   7.3349553  56.8070153  58.1320473   6.7103733  56.8030023  58.8573783
   7.2479673  55.9401113  57.7356443   6.2566633  57.7306783  65.1104243
   6.5538963  58.6369613  65.0296263   6.8052193  57.2425563  64.4963813
   4.0104953  62.3093023  60.9795893   3.7845873  62.0930193  61.8842513
   3.2297483  62.7421483  60.6341863  11.2402713  62.3156393  59.5786543
  10.6411603  63.0392193  59.3950163  11.7882323  62.2533173  58.7962993
   9.8467583  60.9519933  61.6089823  10.2397153  61.2692133  60.7958513
  10.2084433  60.0731813  61.7234343  10.4322723  63.5425683  65.7040603
   9.7003843  64.0512493  66.0530703  10.0347063  62.7255663  65.4029383
   6.8700113  60.2179883  64.1093093   6.8736173  59.7769833  63.2597633
   7.7651233  60.5397213  64.2164913   2.7202493  60.1006373  63.0687303
   2.3802543  60.5781603  63.8254353   1.9579813  59.6471493  62.7088403
   6.9320263  61.2191963  57.0999853   7.0533083  61.1778443  58.0485673
   6.5468773  62.0816113  56.9446583  10.8948633  58.9959363  65.1163543
  10.9121373  59.4468013  65.9605393  10.6464213  58.0965003  65.3296983
   5.9441763  63.5293103  56.4983153   5.3758663  63.0811353  55.8719063
   6.6530763  63.8885883  55.9648303   7.1708083  64.2781663  65.8558503
   7.5378213  63.8040233  66.6019843   6.9813143  65.1523233  66.1966843
   4.9607453  63.3190303  68.1742713   4.6564523  64.1982283  68.3993073
   5.9153913  63.3790093  68.2100153   3.4889243  67.5251293  58.7709563
   2.7151503  66.9848913  58.6108283   4.2183873  67.0057903  58.4327323
  14.2477223  66.5216653  64.5635953  14.9676343  67.0171943  64.1732063
  14.0459043  65.8434543  63.9189823   9.7087163  57.9154613  58.7065343
   8.8951773  57.4167783  58.6310653   9.5149113  58.7552863  58.2901693
  12.4235553  62.2874263  57.0027503  13.3115173  62.5991493  56.8278843
  12.3940643  61.4146513  56.6108083   3.5326643  67.1931673  62.4088373
   4.0505313  66.3899933  62.3545263   3.0810663  67.1310813  63.2505203
   8.4196143  68.4597953  57.6815673   8.7611843  69.2040183  57.1858993
   7.5908853  68.7729073  58.0440503  14.6949823  63.5986103  56.4707363
  14.6113543  64.0300323  55.6203803  15.4144013  64.0584453  56.9034183
  15.7723963  66.0553623  69.5477333  15.0472153  66.6482403  69.3506723
  16.2999423  66.0477163  68.7490703  15.7237073  70.4528363  59.1989493
  15.0813233  69.7983983  59.4733213  15.3367733  70.8583453  58.4230163
  11.3023553  67.7813793  63.0461183  11.6547373  67.1841923  62.3862553
  10.4185883  67.4558023  63.2169433   7.3886833  68.5411483  60.4531593
   8.0757963  69.0880693  60.8339183   6.6019253  69.0852213  60.4881203
   6.6914043  65.5457513  60.0656953   7.1476823  66.3562763  60.2917143
   6.3402253  65.2280653  60.8975443   8.9946653  71.0563853  67.2949253
   9.6388873  71.2623233  67.9722673   9.3576093  70.2952253  66.8420103
   2.5925823  55.8895163  60.5379473   2.4640453  55.8813063  61.4864393
   1.7687843  56.2278253  60.1870483  10.2678733  69.0596203  66.0126703
  10.9100963  68.3589363  66.1258873  10.7928083  69.8394643  65.8323593
  14.1134453  69.3444823  55.7365843  13.8872033  68.6275263  56.3290483
  13.7230653  69.0957263  54.8987593  13.6950703  67.2616763  57.3980003
  13.4072403  67.7229453  58.1857883  14.4902873  66.8014533  57.6664223
  11.0858533  60.1408593  67.7487623  11.4539353  59.3203803  68.0767193
  10.2256733  60.2010483  68.1643273  14.4520563  59.0965533  58.5575183
  13.8233723  59.2011203  57.8433413  13.9572483  59.3162313  59.3469063
   8.8978703  70.8171123  55.9909163   8.9990683  70.6135113  55.0611143
   7.9980443  70.5629403  56.1956943   6.4204593  61.3751483  59.9733063
   5.7120743  61.8437823  60.4146673   6.7049073  60.7173493  60.6078253
   8.0460523  62.7948183  67.9725593   8.5445773  63.2694003  68.6377443
   8.1883473  61.8711703  68.1795623  10.4520023  58.1002143  61.4128853
  10.3287803  58.1188273  60.4638363  11.4004583  58.1481083  61.5327253
   4.6239613  59.6836563  57.3483773   5.4730143  60.1206713  57.2823963
   4.2570883  59.9956823  58.1755833  15.2527383  59.0116143  68.8153983
  14.7500983  59.7521543  69.1547793  16.0684043  59.4000143  68.4990773
  13.5449393  64.2549323  62.2615343  12.6039533  64.2699553  62.4363033
  13.8593463  63.4685283  62.7075643   3.5231033  65.9368923  55.8219303
   4.2894303  65.8250283  56.3844733   3.6005723  65.2406893  55.1696073
   2.2177793  63.3693993  56.5052193   2.2981383  62.4221503  56.6169593
   3.1097543  63.7000873  56.6112853   6.6472213  67.9123103  55.2954653
   6.5422853  67.2975453  56.0216033   6.4796433  67.3888993  54.5117663
   9.8874943  66.9743133  55.8996643   9.3385043  67.4212433  56.5439383
  10.5094203  66.4692383  56.4234313   5.5550063  65.9334053  57.7961943
   5.9766483  65.7673923  58.6393333   5.6800903  65.1234283  57.3017083
   8.0677703  64.9571663  55.0439043   8.5883363  64.2420683  54.6780193
   8.7146103  65.5957533  55.3439553   6.9711223  57.4366213  67.7157603
   6.5228523  57.4590473  66.8703153   6.3376423  57.0385233  68.3127903
   7.3770773  66.3320543  68.3370043   7.7958883  67.1753273  68.1646283
   6.4579403  66.4692583  68.1076823  12.0522573  64.6173913  68.2970393
  11.5257793  65.1416533  67.6935533  12.3953913  65.2501303  68.9280123
   4.4508963  62.0067283  54.7420103   4.2498023  61.1434643  55.1033443
   4.2801013  61.9200643  53.8041703  11.9297273  56.8175513  57.2706983
  12.2099563  55.9743413  57.6266403  11.1563003  57.0498623  57.7845733
   3.2491763  59.1067903  54.7297983   3.5517663  59.1135333  53.8217133
   3.9886353  58.7565763  55.2265643   6.4676693  58.0502523  55.7154183
   6.1198693  57.3726513  55.1356633   6.6689463  57.5892033  56.5297573
   2.2721893  68.4110323  55.5627783   2.7096763  68.9539993  56.2185363
   2.7569623  67.5857273  55.5724123   4.0829613  69.5308363  60.6750013
   3.7825153  69.4073333  61.5753923   3.9767103  68.6716953  60.2665743
  16.8521533  69.3104763  55.3776693  16.0214493  69.3781413  55.8483923
  17.0293363  70.2008883  55.0743553  16.3077993  66.0552243  57.8810893
  17.0696903  66.6248893  57.9870583  16.3232363  65.4879443  58.6519203
  17.3137963  66.9102343  62.7252823  17.6846793  66.1269663  62.3188793
  17.9539893  67.5991443  62.5470123  14.2971723  68.2938923  68.1383143
  13.4831563  68.7236083  68.4008933  14.7045923  68.9057333  67.5252193
  16.3597163  66.3486613  55.0383413  16.6346003  67.2565493  54.9102633
  16.1707903  66.2849143  55.9745403  12.7572773  59.3731463  56.3337043
  13.1757653  59.1862443  55.4933703  12.4508833  58.5210513  56.6439973
  16.2562503  64.2855603  60.0312843  15.8806103  63.5183533  59.5994133
  15.5265623  64.6678303  60.5187773  15.6462123  63.4327123  69.6652363
  15.4148213  63.2039873  68.7650313  15.9066673  64.3526673  69.6197253
  15.5313463  62.5113093  63.3320083  16.0550943  62.0175743  62.7010253
  16.1172883  62.6463453  64.0767653  15.7103183  62.5952963  66.8539633
  14.7605893  62.5616503  66.9684623  15.8916193  63.5053073  66.6189403
  15.0213433  61.7686443  59.2712493  15.5172553  61.5357313  60.0561373
  14.8229503  60.9298283  58.8550133  16.4500593  60.4047393  61.8050173
  16.3399873  60.2503433  62.7432443  17.2108183  59.8768333  61.5625583
  14.7966313  56.3441523  68.2633173  15.4338533  56.9575663  68.6292363
  14.9441203  56.3802183  67.3182403  17.3390863  58.2355313  55.0456313
  18.2640173  58.1036493  54.8374603  17.3166653  58.3148133  55.9992763
  17.4129353  59.0065973  57.6713023  16.6180853  58.9411093  58.2005933
  17.6172633  59.9416613  57.6598373   5.9616373  71.0335023  67.4151763
   5.7207733  71.3009583  66.5282283   6.9019013  71.2040753  67.4702623
  11.5453393  55.7169913  67.1369853  10.6713233  56.0505023  66.9342783
  11.4364143  55.2443093  67.9621723  12.4525373  57.9240783  68.5211573
  12.1238733  57.1092543  68.1413303  13.4007673  57.8810593  68.3977263
   9.2928213  56.6339753  66.0762763   8.5100003  57.1085253  66.3559523
   8.9991143  55.7294583  65.9675943  13.8449283  57.3362853  64.1211853
  14.2857373  57.2807953  63.2733453  13.5756873  58.2520863  64.1922033
  15.7087853  56.9678093  62.1320673  15.6476253  56.0239313  61.9851693
  16.4879883  57.0758183  62.6774133   7.1782433  59.0526503  61.5878793
   6.3656943  58.6783393  61.2474673   7.6824073  58.2971583  61.8899983
  11.6807413  55.7168953  62.8261863  12.2836783  56.2889163  63.3010383
  10.9400403  56.2808393  62.6035763  14.8242013  56.1190513  58.1002143
  15.0192643  57.0173963  58.3669573  14.0371883  55.8877593  58.5935093
   3.0093773  57.4651283  57.1378453   3.5386533  56.6781083  57.0086403
   3.6422093  58.1442473  57.3713983   5.2031613  57.2026423  60.1923843
   4.5734353  56.5013733  60.3593973   4.6636753  57.9630553  59.9757003
   3.3811063  69.8650793  57.4190343   2.7519943  70.3335893  57.9676173
   3.4958893  69.0200013  57.8536533  10.8360783  63.9156453  43.5691543
  10.7554833  63.0011063  43.2983253  10.4225203  64.4123523  42.8631253
   8.9678823  65.6935473  45.4500813   8.1920923  65.2135913  45.7399383
   9.6191753  65.0141123  45.2756973   2.9844653  66.0055283  46.3276573
   2.1529533  65.7503993  46.7273083   3.5925633  66.0766053  47.0634493
  12.9886253  70.0995663  44.2299943  12.5267783  69.3282903  44.5587113
  13.8011803  70.1261733  44.7352393   2.9645913  70.0395373  46.5234593
   3.2673953  69.1493113  46.3444813   3.7089503  70.5965593  46.2956843
   8.4087813  68.3692663  45.4570973   8.3396093  67.4282603  45.2960103
   9.1707673  68.4594073  46.0293543   9.4392983  61.1763043  45.6839903
   9.8157803  60.3034923  45.5713573   9.3412493  61.5121743  44.7930343
   3.5697993  59.5488673  41.1457343   3.6764743  60.4492403  41.4526103
   2.6590353  59.5006643  40.8551993  13.2217103  58.6713483  42.6168243
  14.0426723  58.1810053  42.6593723  13.2551183  59.2611143  43.3700083
   5.4105723  62.5175043  45.4782523   5.9183943  63.0156013  46.1187543
   5.9418963  61.7410243  45.3021883  17.5116653  60.6880233  49.1811873
  16.8068823  61.0761943  48.6626983  17.7774573  61.3830523  49.7832803
   3.6941823  57.1573603  49.7445943   3.6960263  57.6745993  48.9391843
   2.8646133  56.6803783  49.7215873  10.0812913  67.2692913  41.2435843
   9.4630183  67.7342363  40.6798563  10.5936163  67.9620393  41.6605353
   4.9444673  66.7968783  47.9219443   4.6114053  67.4237703  48.5640513
   5.1211353  67.3230663  47.1421113  13.4578583  60.6113863  45.3895783
  12.7534153  60.8998753  45.9698893  13.8190743  61.4213973  45.0295343
   3.3757153  58.8683563  47.7516393   3.7173963  59.7125613  47.4570263
   2.4372963  59.0167303  47.8681733   4.1563773  68.7649583  49.7368623
   4.7737773  69.4400663  49.4553073   3.2956893  69.1737563  49.6456123
  15.0741363  70.2288993  47.6523263  14.3904883  70.8988103  47.6439933
  15.6135653  70.4269643  46.8868123  16.5265503  60.0568653  45.7804993
  15.5790413  60.0907633  45.9120423  16.8515493  60.8707603  46.1654353
   7.0585043  56.3565833  44.0760983   7.3660023  55.8012723  43.3596483
   6.1285743  56.4910293  43.8933973  13.9045523  68.7949343  41.4558613
  13.7941853  67.8523673  41.5808033  13.9013773  69.1564983  42.3421373
  12.0085543  66.9762963  47.6951053  12.4254333  66.7623073  46.8604513
  12.7325363  67.2335753  48.2659673   9.4465803  64.4214663  40.8121103
   8.5195083  64.3552043  41.0409573   9.5990623  65.3594793  40.6976343
   9.4334883  60.6931663  37.8088263   8.4938553  60.8545623  37.8940723
   9.7518143  61.4117343  37.2624253  15.9547643  65.3750183  47.7867293
  15.1266273  65.4443273  47.3117423  16.5498123  65.9604493  47.3183123
  13.4763093  65.9834963  41.3156353  12.8575513  65.6454513  40.6682653
  13.4587543  65.3394723  42.0235543  12.9189653  62.1619503  48.7322163
  12.5060833  62.9873213  48.9862153  12.1865603  61.5764543  48.5398523
   5.0522443  64.9479403  43.5940833   4.6479443  64.2356653  43.0986733
   5.1385563  64.6032643  44.4828873   5.5204143  68.6346963  45.7580043
   5.2232433  68.0292433  45.0787823   6.4703963  68.6724273  45.6469403
   3.7651063  61.7222613  47.3739873   4.3165653  61.8317953  46.5993123
   4.2794573  62.0960213  48.0895103   4.6122573  68.3728653  52.4087843
   3.7151103  68.5968623  52.6561243   4.6375443  68.4963593  51.4599243
  11.6527793  65.2221773  38.3229103  12.0921073  64.3844203  38.1766923
  12.3656213  65.8551173  38.4093243   3.4393793  65.2441973  50.9845213
   3.3001563  66.1164773  51.3532613   2.5575153  64.9014783  50.8393153
   9.7623173  70.1617843  42.2910343  10.2019083  70.9042173  41.8765733
   9.7010063  70.4044413  43.2149303  15.2344933  56.4764583  36.6370143
  14.9217593  56.5691413  37.5369213  15.9957403  57.0545613  36.5867573
  16.5922213  69.1603623  51.6494543  16.7185273  68.9215503  50.7311723
  16.6343593  68.3288163  52.1216623  12.1319483  70.6574523  38.2071353
  11.4384643  70.6551813  37.5473633  12.8742343  70.2333843  37.7765523
  16.4446223  61.2136083  52.6144283  15.8290493  61.7215753  52.0859743
  16.1242643  60.3134413  52.5570223   4.2190733  57.1859453  44.4771153
   3.7758883  57.9668993  44.1455673   4.7775723  57.5089343  45.1842093
   8.5060543  60.0527973  50.0806473   8.0439913  60.2610993  50.8926413
   8.1038653  59.2387323  49.7777143  13.5065053  61.2736923  51.2103133
  12.6558643  60.9742673  51.5312203  13.3466843  61.5178933  50.2986953
  10.6014763  62.7738673  53.3101923  10.9268173  61.9402423  52.9704153
  11.3895093  63.2967193  53.4580253   7.3349553  56.8070153  39.3576983
   6.7103733  56.8030023  40.0830293   7.2479673  55.9401113  38.9612953
   6.2566633  57.7306783  46.3360753   6.5538963  58.6369613  46.2552773
   6.8052193  57.2425563  45.7220323   4.0104953  62.3093023  42.2052403
   3.7845873  62.0930193  43.1099023   3.2297483  62.7421483  41.8598373
  11.2402713  62.3156393  40.8043053  10.6411603  63.0392193  40.6206673
  11.7882323  62.2533173  40.0219503   6.4504163  63.2078603  52.8712673
   6.3547763  62.2673333  52.7213073   7.2936143  63.4293673  52.4760743
   9.8467583  60.9519933  42.8346333  10.2397153  61.2692133  42.0215023
  10.2084433  60.0731813  42.9490853   8.1559753  59.7027243  54.0943193
   7.4658073  59.5099443  54.7289283   8.8992053  59.9861883  54.6267493
  10.4322723  63.5425683  46.9297113   9.7003843  64.0512493  47.2787213
  10.0347063  62.7255663  46.6285893   6.8700113  60.2179883  45.3349603
   6.8736173  59.7769833  44.4854143   7.7651233  60.5397213  45.4421423
   2.7202493  60.1006373  44.2943813   2.3802543  60.5781603  45.0510863
   1.9579813  59.6471493  43.9344913   6.9320263  61.2191963  38.3256363
   7.0533083  61.1778443  39.2742183   6.5468773  62.0816113  38.1703093
  10.8948633  58.9959363  46.3420053  10.9121373  59.4468013  47.1861903
  10.6464213  58.0965003  46.5553493   5.9441763  63.5293103  37.7239663
   5.3758663  63.0811353  37.0975573   6.6530763  63.8885883  37.1904813
  14.3219383  56.4091543  52.1806433  14.6465153  55.6781203  52.7064413
  14.3575893  56.0905183  51.2787423   7.1708083  64.2781663  47.0815013
   7.5378213  63.8040233  47.8276353   6.9813143  65.1523233  47.4223353
   4.9607453  63.3190303  49.3999223   4.6564523  64.1982283  49.6249583
   5.9153913  63.3790093  49.4356663   3.4889243  67.5251293  39.9966073
   2.7151503  66.9848913  39.8364793   4.2183873  67.0057903  39.6583833
  14.2477223  66.5216653  45.7892463  14.9676343  67.0171943  45.3988573
  14.0459043  65.8434543  45.1446333   9.7087163  57.9154613  39.9321853
   8.8951773  57.4167783  39.8567163   9.5149113  58.7552863  39.5158203
   9.6296023  66.5925713  51.6761463   9.5633333  65.6721383  51.4219053
   9.0001163  66.6901153  52.3906103  12.4235553  62.2874263  38.2284013
  13.3115173  62.5991493  38.0535353  12.3940643  61.4146513  37.8364593
   3.5326643  67.1931673  43.6344883   4.0505313  66.3899933  43.5801773
   3.0810663  67.1310813  44.4761713   8.4196143  68.4597953  38.9072183
   8.7611843  69.2040183  38.4115503   7.5908853  68.7729073  39.2697013
   4.2184303  64.6177283  53.4310133   3.9184443  64.7634463  52.5337953
   4.9895543  64.0582573  53.3383523   9.5612753  69.4146283  51.4265263
   9.5757293  68.4827243  51.2084173   8.8537853  69.5006043  52.0655033
  14.6949823  63.5986103  37.6963873  14.6113543  64.0300323  36.8460313
  15.4144013  64.0584453  38.1290693  15.7723963  66.0553623  50.7733843
  15.0472153  66.6482403  50.5763233  16.2999423  66.0477163  49.9747213
  15.7237073  70.4528363  40.4246003  15.0813233  69.7983983  40.6989723
  15.3367733  70.8583453  39.6486673  11.3023553  67.7813793  44.2717693
  11.6547373  67.1841923  43.6119063  10.4185883  67.4558023  44.4425943
   7.3886833  68.5411483  41.6788103   8.0757963  69.0880693  42.0595693
   6.6019253  69.0852213  41.7137713   6.6914043  65.5457513  41.2913463
   7.1476823  66.3562763  41.5173653   6.3402253  65.2280653  42.1231953
   8.9946653  71.0563853  48.5205763   9.6388873  71.2623233  49.1979183
   9.3576093  70.2952253  48.0676613   2.5925823  55.8895163  41.7635983
   2.4640453  55.8813063  42.7120903   1.7687843  56.2278253  41.4126993
  10.2678733  69.0596203  47.2383213  10.9100963  68.3589363  47.3515383
  10.7928083  69.8394643  47.0580103  14.1134453  69.3444823  36.9622353
  13.8872033  68.6275263  37.5546993  13.7230653  69.0957263  36.1244103
  12.0416353  69.8591103  50.4419273  12.3772593  70.4457793  51.1197193
  11.1216693  69.7283813  50.6717063  13.6950703  67.2616763  38.6236513
  13.4072403  67.7229453  39.4114393  14.4902873  66.8014533  38.8920733
   7.8704933  69.9082433  53.6107333   7.5501803  69.1891673  54.1553023
   7.1963293  70.5837503  53.6843393  11.0858533  60.1408593  48.9744133
  11.4539353  59.3203803  49.3023703  10.2256733  60.2010483  49.3899783
  14.4520563  59.0965533  39.7831693  13.8233723  59.2011203  39.0689923
  13.9572483  59.3162313  40.5725573   8.8978703  70.8171123  37.2165673
   8.9990683  70.6135113  36.2867653   7.9980443  70.5629403  37.4213453
   6.4204593  61.3751483  41.1989573   5.7120743  61.8437823  41.6403183
   6.7049073  60.7173493  41.8334763   8.0460523  62.7948183  49.1982103
   8.5445773  63.2694003  49.8633953   8.1883473  61.8711703  49.4052133
  10.4520023  58.1002143  42.6385363  10.3287803  58.1188273  41.6894873
  11.4004583  58.1481083  42.7583763   4.6239613  59.6836563  38.5740283
   5.4730143  60.1206713  38.5080473   4.2570883  59.9956823  39.4012343
  15.2527383  59.0116143  50.0410493  14.7500983  59.7521543  50.3804303
  16.0684043  59.4000143  49.7247283  13.5449393  64.2549323  43.4871853
  12.6039533  64.2699553  43.6619543  13.8593463  63.4685283  43.9332153
   3.5231033  65.9368923  37.0475813   4.2894303  65.8250283  37.6101243
   3.6005723  65.2406893  36.3952583   2.2177793  63.3693993  37.7308703
   2.2981383  62.4221503  37.8426103   3.1097543  63.7000873  37.8369363
  10.8615413  68.8115323  53.9704233  10.2553573  68.8346923  53.2299983
  10.5569523  68.0798363  54.5071483   6.6472213  67.9123103  36.5211163
   6.5422853  67.2975453  37.2472543   6.4796433  67.3888993  35.7374173
   6.7986533  66.5979903  52.5000393   6.0332203  67.1664903  52.4155063
   6.9802493  66.3056113  51.6068623   9.8874943  66.9743133  37.1253153
   9.3385043  67.4212433  37.7695893  10.5094203  66.4692383  37.6490823
  13.9409883  68.3285233  53.0575413  14.6819353  68.6660993  52.5542873
  13.1782563  68.4977293  52.5045183   1.7771673  63.3338503  53.8614943
   1.8177013  63.0352373  54.7700173   2.6317173  63.7346113  53.7022463
   5.5550063  65.9334053  39.0218453   5.9766483  65.7673923  39.8649843
   5.6800903  65.1234283  38.5273593   3.7177483  61.9130603  51.8289433
   3.1873943  61.4221553  51.2012773   4.3865553  62.3414803  51.2947363
   8.0677703  64.9571663  36.2695553   8.5883363  64.2420683  35.9036703
   8.7146103  65.5957533  36.5696063  12.6155543  66.3800063  51.5930623
  13.0296563  66.5345143  52.4421043  11.6806543  66.5055283  51.7556403
  13.0877713  63.7196223  53.5969773  13.6698483  62.9648543  53.5090253
  13.2639483  64.2503663  52.8201253   4.2049783  58.8792973  51.9086723
   4.1106653  58.2613723  51.1837593   3.6247173  59.6059263  51.6816633
   6.9711223  57.4366213  48.9414113   6.5228523  57.4590473  48.0959663
   6.3376423  57.0385233  49.5384413   7.3770773  66.3320543  49.5626553
   7.7958883  67.1753273  49.3902793   6.4579403  66.4692583  49.3333333
   9.7134673  64.0636723  50.9464393   9.8330883  63.4677863  51.6859233
  10.5728673  64.1006413  50.5265693  12.0522573  64.6173913  49.5226903
  11.5257793  65.1416533  48.9192043  12.3953913  65.2501303  50.1536633
   4.4508963  62.0067283  35.9676613   4.2498023  61.1434643  36.3289953
   4.2801013  61.9200643  35.0298213   6.4803443  60.6058073  52.2040213
   7.0703133  60.2973923  52.8918033   5.6623683  60.1337823  52.3600113
  11.2996873  60.2223883  52.4373233  10.6112393  59.5605423  52.3723223
  12.0202893  59.7762153  52.8821693  11.9297273  56.8175513  38.4963493
  12.2099563  55.9743413  38.8522913  11.1563003  57.0498623  39.0102243
   3.2491763  59.1067903  35.9554493   3.5517663  59.1135333  35.0473643
   3.9886353  58.7565763  36.4522153   6.4676693  58.0502523  36.9410693
   6.1198693  57.3726513  36.3613143   6.6689463  57.5892033  37.7554083
   2.2721893  68.4110323  36.7884293   2.7096763  68.9539993  37.4441873
   2.7569623  67.5857273  36.7980633   4.0829613  69.5308363  41.9006523
   3.7825153  69.4073333  42.8010433   3.9767103  68.6716953  41.4922253
  16.8521533  69.3104763  36.6033203  16.0214493  69.3781413  37.0740433
  17.0293363  70.2008883  36.3000063  16.3077993  66.0552243  39.1067403
  17.0696903  66.6248893  39.2127093  16.3232363  65.4879443  39.8775713
  17.3137963  66.9102343  43.9509333  17.6846793  66.1269663  43.5445303
  17.9539893  67.5991443  43.7726633  14.2971723  68.2938923  49.3639653
  13.4831563  68.7236083  49.6265443  14.7045923  68.9057333  48.7508703
  16.3597163  66.3486613  36.2639923  16.6346003  67.2565493  36.1359143
  16.1707903  66.2849143  37.2001913  12.7572773  59.3731463  37.5593553
  13.1757653  59.1862443  36.7190213  12.4508833  58.5210513  37.8696483
  16.2562503  64.2855603  41.2569353  15.8806103  63.5183533  40.8250643
  15.5265623  64.6678303  41.7444283  15.6462123  63.4327123  50.8908873
  15.4148213  63.2039873  49.9906823  15.9066673  64.3526673  50.8453763
  14.0850193  58.6583553  53.6688573  14.9620373  58.6666953  54.0522573
  14.0971033  57.9214393  53.0580923  15.5313463  62.5113093  44.5576593
  16.0550943  62.0175743  43.9266763  16.1172883  62.6463453  45.3024163
  15.7103183  62.5952963  48.0796143  14.7605893  62.5616503  48.1941133
  15.8916193  63.5053073  47.8445913  15.0213433  61.7686443  40.4969003
  15.5172553  61.5357313  41.2817883  14.8229503  60.9298283  40.0806643
  16.4500593  60.4047393  43.0306683  16.3399873  60.2503433  43.9688953
  17.2108183  59.8768333  42.7882093  14.7966313  56.3441523  49.4889683
  15.4338533  56.9575663  49.8548873  14.9441203  56.3802183  48.5438913
  17.3390863  58.2355313  36.2712823  18.2640173  58.1036493  36.0631113
  17.3166653  58.3148133  37.2249273  17.4129353  59.0065973  38.8969533
  16.6180853  58.9411093  39.4262443  17.6172633  59.9416613  38.8854883
   2.2610343  69.4775433  53.0398553   2.2179973  69.1068343  53.9213013
   2.3921353  70.4153003  53.1800373   5.9616373  71.0335023  48.6408273
   5.7207733  71.3009583  47.7538793   6.9019013  71.2040753  48.6959133
   8.1670793  57.4967713  52.3964783   8.1059683  58.0889543  53.1460193
   9.1071173  57.3893673  52.2515043  10.8045353  57.1537773  52.0357073
  11.4185763  57.4717063  51.3738153  11.3494913  56.6686363  52.6552933
  11.5453393  55.7169913  48.3626363  10.6713233  56.0505023  48.1599293
  11.4364143  55.2443093  49.1878233  12.4525373  57.9240783  49.7468083
  12.1238733  57.1092543  49.3669813  13.4007673  57.8810593  49.6233773
   9.2928213  56.6339753  47.3019273   8.5100003  57.1085253  47.5816033
   8.9991143  55.7294583  47.1932453  13.8449283  57.3362853  45.3468363
  14.2857373  57.2807953  44.4989963  13.5756873  58.2520863  45.4178543
  15.7087853  56.9678093  43.3577183  15.6476253  56.0239313  43.2108203
  16.4879883  57.0758183  43.9030643   7.1782433  59.0526503  42.8135303
   6.3656943  58.6783393  42.4731183   7.6824073  58.2971583  43.1156493
  11.6807413  55.7168953  44.0518373  12.2836783  56.2889163  44.5266893
  10.9400403  56.2808393  43.8292273  14.8242013  56.1190513  39.3258653
  15.0192643  57.0173963  39.5926083  14.0371883  55.8877593  39.8191603
   3.0093773  57.4651283  38.3634963   3.5386533  56.6781083  38.2342913
   3.6422093  58.1442473  38.5970493   5.2031613  57.2026423  41.4180353
   4.5734353  56.5013733  41.5850483   4.6636753  57.9630553  41.2013513
   5.3287173  56.4810403  53.8532843   5.0471443  56.9844003  53.0893663
   5.7106873  55.6832153  53.4874973   3.3811063  69.8650793  38.6446853
   2.7519943  70.3335893  39.1932683   3.4958893  69.0200013  39.0793043
  11.9302633  55.8963983  54.4313313  11.8168083  56.2158593  55.3264833
  12.7472373  56.2976493  54.1350593  10.8360783  63.9156453  24.7948053
  10.7554833  63.0011063  24.5239763  10.4225203  64.4123523  24.0887763
   8.9678823  65.6935473  26.6757323   8.1920923  65.2135913  26.9655893
   9.6191753  65.0141123  26.5013483   2.9844653  66.0055283  27.5533083
   2.1529533  65.7503993  27.9529593   3.5925633  66.0766053  28.2891003
  12.9886253  70.0995663  25.4556453  12.5267783  69.3282903  25.7843623
  13.8011803  70.1261733  25.9608903   2.9645913  70.0395373  27.7491103
   3.2673953  69.1493113  27.5701323   3.7089503  70.5965593  27.5213353
   8.4087813  68.3692663  26.6827483   8.3396093  67.4282603  26.5216613
   9.1707673  68.4594073  27.2550053   9.4392983  61.1763043  26.9096413
   9.8157803  60.3034923  26.7970083   9.3412493  61.5121743  26.0186853
   3.5697993  59.5488673  22.3713853   3.6764743  60.4492403  22.6782613
   2.6590353  59.5006643  22.0808503  13.2217103  58.6713483  23.8424753
  14.0426723  58.1810053  23.8850233  13.2551183  59.2611143  24.5956593
   5.4105723  62.5175043  26.7039033   5.9183943  63.0156013  27.3444053
   5.9418963  61.7410243  26.5278393  17.5116653  60.6880233  30.4068383
  16.8068823  61.0761943  29.8883493  17.7774573  61.3830523  31.0089313
   3.6941823  57.1573603  30.9702453   3.6960263  57.6745993  30.1648353
   2.8646133  56.6803783  30.9472383  10.0812913  67.2692913  22.4692353
   9.4630183  67.7342363  21.9055073  10.5936163  67.9620393  22.8861863
   4.9444673  66.7968783  29.1475953   4.6114053  67.4237703  29.7897023
   5.1211353  67.3230663  28.3677623  13.4578583  60.6113863  26.6152293
  12.7534153  60.8998753  27.1955403  13.8190743  61.4213973  26.2551853
   3.3757153  58.8683563  28.9772903   3.7173963  59.7125613  28.6826773
   2.4372963  59.0167303  29.0938243   4.1563773  68.7649583  30.9625133
   4.7737773  69.4400663  30.6809583   3.2956893  69.1737563  30.8712633
  15.0741363  70.2288993  28.8779773  14.3904883  70.8988103  28.8696443
  15.6135653  70.4269643  28.1124633  16.5265503  60.0568653  27.0061503
  15.5790413  60.0907633  27.1376933  16.8515493  60.8707603  27.3910863
   7.0585043  56.3565833  25.3017493   7.3660023  55.8012723  24.5852993
   6.1285743  56.4910293  25.1190483  13.9045523  68.7949343  22.6815123
  13.7941853  67.8523673  22.8064543  13.9013773  69.1564983  23.5677883
  12.0085543  66.9762963  28.9207563  12.4254333  66.7623073  28.0861023
  12.7325363  67.2335753  29.4916183   9.4465803  64.4214663  22.0377613
   8.5195083  64.3552043  22.2666083   9.5990623  65.3594793  21.9232853
   9.4334883  60.6931663  19.0344773   8.4938553  60.8545623  19.1197233
   9.7518143  61.4117343  18.4880763  15.9547643  65.3750183  29.0123803
  15.1266273  65.4443273  28.5373933  16.5498123  65.9604493  28.5439633
  13.4763093  65.9834963  22.5412863  12.8575513  65.6454513  21.8939163
  13.4587543  65.3394723  23.2492053  12.9189653  62.1619503  29.9578673
  12.5060833  62.9873213  30.2118663  12.1865603  61.5764543  29.7655033
   5.0522443  64.9479403  24.8197343   4.6479443  64.2356653  24.3243243
   5.1385563  64.6032643  25.7085383   5.5204143  68.6346963  26.9836553
   5.2232433  68.0292433  26.3044333   6.4703963  68.6724273  26.8725913
   3.7651063  61.7222613  28.5996383   4.3165653  61.8317953  27.8249633
   4.2794573  62.0960213  29.3151613   4.6122573  68.3728653  33.6344353
   3.7151103  68.5968623  33.8817753   4.6375443  68.4963593  32.6855753
  11.6527793  65.2221773  19.5485613  12.0921073  64.3844203  19.4023433
  12.3656213  65.8551173  19.6349753   3.4393793  65.2441973  32.2101723
   3.3001563  66.1164773  32.5789123   2.5575153  64.9014783  32.0649663
   9.7623173  70.1617843  23.5166853  10.2019083  70.9042173  23.1022243
   9.7010063  70.4044413  24.4405813  15.2344933  56.4764583  17.8626653
  14.9217593  56.5691413  18.7625723  15.9957403  57.0545613  17.8124083
  16.5922213  69.1603623  32.8751053  16.7185273  68.9215503  31.9568233
  16.6343593  68.3288163  33.3473133  12.1319483  70.6574523  19.4327863
  11.4384643  70.6551813  18.7730143  12.8742343  70.2333843  19.0022033
  16.4446223  61.2136083  33.8400793  15.8290493  61.7215753  33.3116253
  16.1242643  60.3134413  33.7826733   4.2190733  57.1859453  25.7027663
   3.7758883  57.9668993  25.3712183   4.7775723  57.5089343  26.4098603
   8.5060543  60.0527973  31.3062983   8.0439913  60.2610993  32.1182923
   8.1038653  59.2387323  31.0033653  13.5065053  61.2736923  32.4359643
  12.6558643  60.9742673  32.7568713  13.3466843  61.5178933  31.5243463
  10.6014763  62.7738673  34.5358433  10.9268173  61.9402423  34.1960663
  11.3895093  63.2967193  34.6836763   7.3349553  56.8070153  20.5833493
   6.7103733  56.8030023  21.3086803   7.2479673  55.9401113  20.1869463
   6.2566633  57.7306783  27.5617263   6.5538963  58.6369613  27.4809283
   6.8052193  57.2425563  26.9476833   4.0104953  62.3093023  23.4308913
   3.7845873  62.0930193  24.3355533   3.2297483  62.7421483  23.0854883
  11.2402713  62.3156393  22.0299563  10.6411603  63.0392193  21.8463183
  11.7882323  62.2533173  21.2476013   6.4504163  63.2078603  34.0969183
   6.3547763  62.2673333  33.9469583   7.2936143  63.4293673  33.7017253
   9.8467583  60.9519933  24.0602843  10.2397153  61.2692133  23.2471533
  10.2084433  60.0731813  24.1747363   8.1559753  59.7027243  35.3199703
   7.4658073  59.5099443  35.9545793   8.8992053  59.9861883  35.8524003
  10.4322723  63.5425683  28.1553623   9.7003843  64.0512493  28.5043723
  10.0347063  62.7255663  27.8542403   6.8700113  60.2179883  26.5606113
   6.8736173  59.7769833  25.7110653   7.7651233  60.5397213  26.6677933
   2.7202493  60.1006373  25.5200323   2.3802543  60.5781603  26.2767373
   1.9579813  59.6471493  25.1601423   6.9320263  61.2191963  19.5512873
   7.0533083  61.1778443  20.4998693   6.5468773  62.0816113  19.3959603
  10.8948633  58.9959363  27.5676563  10.9121373  59.4468013  28.4118413
  10.6464213  58.0965003  27.7810003   5.9441763  63.5293103  18.9496173
   5.3758663  63.0811353  18.3232083   6.6530763  63.8885883  18.4161323
  14.3219383  56.4091543  33.4062943  14.6465153  55.6781203  33.9320923
  14.3575893  56.0905183  32.5043933   7.1708083  64.2781663  28.3071523
   7.5378213  63.8040233  29.0532863   6.9813143  65.1523233  28.6479863
   4.9607453  63.3190303  30.6255733   4.6564523  64.1982283  30.8506093
   5.9153913  63.3790093  30.6613173   3.4889243  67.5251293  21.2222583
   2.7151503  66.9848913  21.0621303   4.2183873  67.0057903  20.8840343
  14.2477223  66.5216653  27.0148973  14.9676343  67.0171943  26.6245083
  14.0459043  65.8434543  26.3702843   9.7087163  57.9154613  21.1578363
   8.8951773  57.4167783  21.0823673   9.5149113  58.7552863  20.7414713
   9.6296023  66.5925713  32.9017973   9.5633333  65.6721383  32.6475563
   9.0001163  66.6901153  33.6162613  12.4235553  62.2874263  19.4540523
  13.3115173  62.5991493  19.2791863  12.3940643  61.4146513  19.0621103
   3.5326643  67.1931673  24.8601393   4.0505313  66.3899933  24.8058283
   3.0810663  67.1310813  25.7018223   8.4196143  68.4597953  20.1328693
   8.7611843  69.2040183  19.6372013   7.5908853  68.7729073  20.4953523
   4.2184303  64.6177283  34.6566643   3.9184443  64.7634463  33.7594463
   4.9895543  64.0582573  34.5640033   9.5612753  69.4146283  32.6521773
   9.5757293  68.4827243  32.4340683   8.8537853  69.5006043  33.2911543
  14.6949823  63.5986103  18.9220383  14.6113543  64.0300323  18.0716823
  15.4144013  64.0584453  19.3547203  15.7723963  66.0553623  31.9990353
  15.0472153  66.6482403  31.8019743  16.2999423  66.0477163  31.2003723
  15.7237073  70.4528363  21.6502513  15.0813233  69.7983983  21.9246233
  15.3367733  70.8583453  20.8743183  11.3023553  67.7813793  25.4974203
  11.6547373  67.1841923  24.8375573  10.4185883  67.4558023  25.6682453
   7.3886833  68.5411483  22.9044613   8.0757963  69.0880693  23.2852203
   6.6019253  69.0852213  22.9394223   6.6914043  65.5457513  22.5169973
   7.1476823  66.3562763  22.7430163   6.3402253  65.2280653  23.3488463
   8.9946653  71.0563853  29.7462273   9.6388873  71.2623233  30.4235693
   9.3576093  70.2952253  29.2933123   2.5925823  55.8895163  22.9892493
   2.4640453  55.8813063  23.9377413   1.7687843  56.2278253  22.6383503
  10.2678733  69.0596203  28.4639723  10.9100963  68.3589363  28.5771893
  10.7928083  69.8394643  28.2836613  14.1134453  69.3444823  18.1878863
  13.8872033  68.6275263  18.7803503  13.7230653  69.0957263  17.3500613
  12.0416353  69.8591103  31.6675783  12.3772593  70.4457793  32.3453703
  11.1216693  69.7283813  31.8973573  13.6950703  67.2616763  19.8493023
  13.4072403  67.7229453  20.6370903  14.4902873  66.8014533  20.1177243
   7.8704933  69.9082433  34.8363843   7.5501803  69.1891673  35.3809533
   7.1963293  70.5837503  34.9099903  11.0858533  60.1408593  30.2000643
  11.4539353  59.3203803  30.5280213  10.2256733  60.2010483  30.6156293
  14.4520563  59.0965533  21.0088203  13.8233723  59.2011203  20.2946433
  13.9572483  59.3162313  21.7982083   8.8978703  70.8171123  18.4422183
   8.9990683  70.6135113  17.5124163   7.9980443  70.5629403  18.6469963
   6.4204593  61.3751483  22.4246083   5.7120743  61.8437823  22.8659693
   6.7049073  60.7173493  23.0591273   8.0460523  62.7948183  30.4238613
   8.5445773  63.2694003  31.0890463   8.1883473  61.8711703  30.6308643
  10.4520023  58.1002143  23.8641873  10.3287803  58.1188273  22.9151383
  11.4004583  58.1481083  23.9840273   4.6239613  59.6836563  19.7996793
   5.4730143  60.1206713  19.7336983   4.2570883  59.9956823  20.6268853
  15.2527383  59.0116143  31.2667003  14.7500983  59.7521543  31.6060813
  16.0684043  59.4000143  30.9503793  13.5449393  64.2549323  24.7128363
  12.6039533  64.2699553  24.8876053  13.8593463  63.4685283  25.1588663
   3.5231033  65.9368923  18.2732323   4.2894303  65.8250283  18.8357753
   3.6005723  65.2406893  17.6209093   2.2177793  63.3693993  18.9565213
   2.2981383  62.4221503  19.0682613   3.1097543  63.7000873  19.0625873
  10.8615413  68.8115323  35.1960743  10.2553573  68.8346923  34.4556493
  10.5569523  68.0798363  35.7327993   6.6472213  67.9123103  17.7467673
   6.5422853  67.2975453  18.4729053   6.4796433  67.3888993  16.9630683
   6.7986533  66.5979903  33.7256903   6.0332203  67.1664903  33.6411573
   6.9802493  66.3056113  32.8325133   9.8874943  66.9743133  18.3509663
   9.3385043  67.4212433  18.9952403  10.5094203  66.4692383  18.8747333
  13.9409883  68.3285233  34.2831923  14.6819353  68.6660993  33.7799383
  13.1782563  68.4977293  33.7301693   1.7771673  63.3338503  35.0871453
   1.8177013  63.0352373  35.9956683   2.6317173  63.7346113  34.9278973
   5.5550063  65.9334053  20.2474963   5.9766483  65.7673923  21.0906353
   5.6800903  65.1234283  19.7530103   3.7177483  61.9130603  33.0545943
   3.1873943  61.4221553  32.4269283   4.3865553  62.3414803  32.5203873
   8.0677703  64.9571663  17.4952063   8.5883363  64.2420683  17.1293213
   8.7146103  65.5957533  17.7952573  12.6155543  66.3800063  32.8187133
  13.0296563  66.5345143  33.6677553  11.6806543  66.5055283  32.9812913
  13.0877713  63.7196223  34.8226283  13.6698483  62.9648543  34.7346763
  13.2639483  64.2503663  34.0457763   4.2049783  58.8792973  33.1343233
   4.1106653  58.2613723  32.4094103   3.6247173  59.6059263  32.9073143
   6.9711223  57.4366213  30.1670623   6.5228523  57.4590473  29.3216173
   6.3376423  57.0385233  30.7640923   7.3770773  66.3320543  30.7883063
   7.7958883  67.1753273  30.6159303   6.4579403  66.4692583  30.5589843
   9.7134673  64.0636723  32.1720903   9.8330883  63.4677863  32.9115743
  10.5728673  64.1006413  31.7522203  12.0522573  64.6173913  30.7483413
  11.5257793  65.1416533  30.1448553  12.3953913  65.2501303  31.3793143
   4.4508963  62.0067283  17.1933123   4.2498023  61.1434643  17.5546463
   4.2801013  61.9200643  16.2554723   6.4803443  60.6058073  33.4296723
   7.0703133  60.2973923  34.1174543   5.6623683  60.1337823  33.5856623
  11.2996873  60.2223883  33.6629743  10.6112393  59.5605423  33.5979733
  12.0202893  59.7762153  34.1078203  11.9297273  56.8175513  19.7220003
  12.2099563  55.9743413  20.0779423  11.1563003  57.0498623  20.2358753
   3.2491763  59.1067903  17.1811003   3.5517663  59.1135333  16.2730153
   3.9886353  58.7565763  17.6778663   6.4676693  58.0502523  18.1667203
   6.1198693  57.3726513  17.5869653   6.6689463  57.5892033  18.9810593
   2.2721893  68.4110323  18.0140803   2.7096763  68.9539993  18.6698383
   2.7569623  67.5857273  18.0237143   4.0829613  69.5308363  23.1263033
   3.7825153  69.4073333  24.0266943   3.9767103  68.6716953  22.7178763
  16.8521533  69.3104763  17.8289713  16.0214493  69.3781413  18.2996943
  17.0293363  70.2008883  17.5256573  16.3077993  66.0552243  20.3323913
  17.0696903  66.6248893  20.4383603  16.3232363  65.4879443  21.1032223
  17.3137963  66.9102343  25.1765843  17.6846793  66.1269663  24.7701813
  17.9539893  67.5991443  24.9983143  14.2971723  68.2938923  30.5896163
  13.4831563  68.7236083  30.8521953  14.7045923  68.9057333  29.9765213
  16.3597163  66.3486613  17.4896433  16.6346003  67.2565493  17.3615653
  16.1707903  66.2849143  18.4258423  12.7572773  59.3731463  18.7850063
  13.1757653  59.1862443  17.9446723  12.4508833  58.5210513  19.0952993
  16.2562503  64.2855603  22.4825863  15.8806103  63.5183533  22.0507153
  15.5265623  64.6678303  22.9700793  15.6462123  63.4327123  32.1165383
  15.4148213  63.2039873  31.2163333  15.9066673  64.3526673  32.0710273
  14.0850193  58.6583553  34.8945083  14.9620373  58.6666953  35.2779083
  14.0971033  57.9214393  34.2837433  15.5313463  62.5113093  25.7833103
  16.0550943  62.0175743  25.1523273  16.1172883  62.6463453  26.5280673
  15.7103183  62.5952963  29.3052653  14.7605893  62.5616503  29.4197643
  15.8916193  63.5053073  29.0702423  15.0213433  61.7686443  21.7225513
  15.5172553  61.5357313  22.5074393  14.8229503  60.9298283  21.3063153
  16.4500593  60.4047393  24.2563193  16.3399873  60.2503433  25.1945463
  17.2108183  59.8768333  24.0138603  14.7966313  56.3441523  30.7146193
  15.4338533  56.9575663  31.0805383  14.9441203  56.3802183  29.7695423
  17.3390863  58.2355313  17.4969333  18.2640173  58.1036493  17.2887623
  17.3166653  58.3148133  18.4505783  17.4129353  59.0065973  20.1226043
  16.6180853  58.9411093  20.6518953  17.6172633  59.9416613  20.1111393
   2.2610343  69.4775433  34.2655063   2.2179973  69.1068343  35.1469523
   2.3921353  70.4153003  34.4056883   5.9616373  71.0335023  29.8664783
   5.7207733  71.3009583  28.9795303   6.9019013  71.2040753  29.9215643
   8.1670793  57.4967713  33.6221293   8.1059683  58.0889543  34.3716703
   9.1071173  57.3893673  33.4771553  10.8045353  57.1537773  33.2613583
  11.4185763  57.4717063  32.5994663  11.3494913  56.6686363  33.8809443
  11.5453393  55.7169913  29.5882873  10.6713233  56.0505023  29.3855803
  11.4364143  55.2443093  30.4134743  12.4525373  57.9240783  30.9724593
  12.1238733  57.1092543  30.5926323  13.4007673  57.8810593  30.8490283
   9.2928213  56.6339753  28.5275783   8.5100003  57.1085253  28.8072543
   8.9991143  55.7294583  28.4188963  13.8449283  57.3362853  26.5724873
  14.2857373  57.2807953  25.7246473  13.5756873  58.2520863  26.6435053
  15.7087853  56.9678093  24.5833693  15.6476253  56.0239313  24.4364713
  16.4879883  57.0758183  25.1287153   7.1782433  59.0526503  24.0391813
   6.3656943  58.6783393  23.6987693   7.6824073  58.2971583  24.3413003
  11.6807413  55.7168953  25.2774883  12.2836783  56.2889163  25.7523403
  10.9400403  56.2808393  25.0548783  14.8242013  56.1190513  20.5515163
  15.0192643  57.0173963  20.8182593  14.0371883  55.8877593  21.0448113
   3.0093773  57.4651283  19.5891473   3.5386533  56.6781083  19.4599423
   3.6422093  58.1442473  19.8227003   5.2031613  57.2026423  22.6436863
   4.5734353  56.5013733  22.8106993   4.6636753  57.9630553  22.4270023
   5.3287173  56.4810403  35.0789353   5.0471443  56.9844003  34.3150173
   5.7106873  55.6832153  34.7131483   3.3811063  69.8650793  19.8703363
   2.7519943  70.3335893  20.4189193   3.4958893  69.0200013  20.3049553
  11.9302633  55.8963983  35.6569823  11.8168083  56.2158593  36.5521343
  12.7472373  56.2976493  35.3607103  10.8360783  63.9156453   6.0204563
  10.7554833  63.0011063   5.7496273  10.4225203  64.4123523   5.3144273
   8.9678823  65.6935473   7.9013833   8.1920923  65.2135913   8.1912403
   9.6191753  65.0141123   7.7269993   2.9844653  66.0055283   8.7789593
   2.1529533  65.7503993   9.1786103   3.5925633  66.0766053   9.5147513
  12.9886253  70.0995663   6.6812963  12.5267783  69.3282903   7.0100133
  13.8011803  70.1261733   7.1865413   2.9645913  70.0395373   8.9747613
   3.2673953  69.1493113   8.7957833   3.7089503  70.5965593   8.7469863
   8.4087813  68.3692663   7.9083993   8.3396093  67.4282603   7.7473123
   9.1707673  68.4594073   8.4806563   9.4392983  61.1763043   8.1352923
   9.8157803  60.3034923   8.0226593   9.3412493  61.5121743   7.2443363
   3.5697993  59.5488673   3.5970363   3.6764743  60.4492403   3.9039123
   2.6590353  59.5006643   3.3065013  13.2217103  58.6713483   5.0681263
  14.0426723  58.1810053   5.1106743  13.2551183  59.2611143   5.8213103
   5.4105723  62.5175043   7.9295543   5.9183943  63.0156013   8.5700563
   5.9418963  61.7410243   7.7534903  17.5116653  60.6880233  11.6324893
  16.8068823  61.0761943  11.1140003  17.7774573  61.3830523  12.2345823
   3.6941823  57.1573603  12.1958963   3.6960263  57.6745993  11.3904863
   2.8646133  56.6803783  12.1728893  10.0812913  67.2692913   3.6948863
   9.4630183  67.7342363   3.1311583  10.5936163  67.9620393   4.1118373
   4.9444673  66.7968783  10.3732463   4.6114053  67.4237703  11.0153533
   5.1211353  67.3230663   9.5934133  13.4578583  60.6113863   7.8408803
  12.7534153  60.8998753   8.4211913  13.8190743  61.4213973   7.4808363
   3.3757153  58.8683563  10.2029413   3.7173963  59.7125613   9.9083283
   2.4372963  59.0167303  10.3194753   4.1563773  68.7649583  12.1881643
   4.7737773  69.4400663  11.9066093   3.2956893  69.1737563  12.0969143
  15.0741363  70.2288993  10.1036283  14.3904883  70.8988103  10.0952953
  15.6135653  70.4269643   9.3381143  16.5265503  60.0568653   8.2318013
  15.5790413  60.0907633   8.3633443  16.8515493  60.8707603   8.6167373
   7.0585043  56.3565833   6.5274003   7.3660023  55.8012723   5.8109503
   6.1285743  56.4910293   6.3446993  13.9045523  68.7949343   3.9071633
  13.7941853  67.8523673   4.0321053  13.9013773  69.1564983   4.7934393
  12.0085543  66.9762963  10.1464073  12.4254333  66.7623073   9.3117533
  12.7325363  67.2335753  10.7172693   9.4465803  64.4214663   3.2634123
   8.5195083  64.3552043   3.4922593   9.5990623  65.3594793   3.1489363
  15.9547643  65.3750183  10.2380313  15.1266273  65.4443273   9.7630443
  16.5498123  65.9604493   9.7696143  13.4763093  65.9834963   3.7669373
  12.8575513  65.6454513   3.1195673  13.4587543  65.3394723   4.4748563
  12.9189653  62.1619503  11.1835183  12.5060833  62.9873213  11.4375173
  12.1865603  61.5764543  10.9911543   5.0522443  64.9479403   6.0453853
   4.6479443  64.2356653   5.5499753   5.1385563  64.6032643   6.9341893
   5.5204143  68.6346963   8.2093063   5.2232433  68.0292433   7.5300843
   6.4703963  68.6724273   8.0982423   3.7651063  61.7222613   9.8252893
   4.3165653  61.8317953   9.0506143   4.2794573  62.0960213  10.5408123
   4.6122573  68.3728653  14.8600863   3.7151103  68.5968623  15.1074263
   4.6375443  68.4963593  13.9112263   3.4393793  65.2441973  13.4358233
   3.3001563  66.1164773  13.8045633   2.5575153  64.9014783  13.2906173
   9.7623173  70.1617843   4.7423363  10.2019083  70.9042173   4.3278753
   9.7010063  70.4044413   5.6662323  16.5922213  69.1603623  14.1007563
  16.7185273  68.9215503  13.1824743  16.6343593  68.3288163  14.5729643
  16.4446223  61.2136083  15.0657303  15.8290493  61.7215753  14.5372763
  16.1242643  60.3134413  15.0083243   4.2190733  57.1859453   6.9284173
   3.7758883  57.9668993   6.5968693   4.7775723  57.5089343   7.6355113
   8.5060543  60.0527973  12.5319493   8.0439913  60.2610993  13.3439433
   8.1038653  59.2387323  12.2290163  13.5065053  61.2736923  13.6616153
  12.6558643  60.9742673  13.9825223  13.3466843  61.5178933  12.7499973
  10.6014763  62.7738673  15.7614943  10.9268173  61.9402423  15.4217173
  11.3895093  63.2967193  15.9093273   6.2566633  57.7306783   8.7873773
   6.5538963  58.6369613   8.7065793   6.8052193  57.2425563   8.1733343
   4.0104953  62.3093023   4.6565423   3.7845873  62.0930193   5.5612043
   3.2297483  62.7421483   4.3111393  11.2402713  62.3156393   3.2556073
  10.6411603  63.0392193   3.0719693  11.7882323  62.2533173   2.4732523
   6.4504163  63.2078603  15.3225693   6.3547763  62.2673333  15.1726093
   7.2936143  63.4293673  14.9273763   9.8467583  60.9519933   5.2859353
  10.2397153  61.2692133   4.4728043  10.2084433  60.0731813   5.4003873
   8.1559753  59.7027243  16.5456213   7.4658073  59.5099443  17.1802303
   8.8992053  59.9861883  17.0780513  10.4322723  63.5425683   9.3810133
   9.7003843  64.0512493   9.7300233  10.0347063  62.7255663   9.0798913
   6.8700113  60.2179883   7.7862623   6.8736173  59.7769833   6.9367163
   7.7651233  60.5397213   7.8934443   2.7202493  60.1006373   6.7456833
   2.3802543  60.5781603   7.5023883   1.9579813  59.6471493   6.3857933
  10.8948633  58.9959363   8.7933073  10.9121373  59.4468013   9.6374923
  10.6464213  58.0965003   9.0066513  14.3219383  56.4091543  14.6319453
  14.6465153  55.6781203  15.1577433  14.3575893  56.0905183  13.7300443
   7.1708083  64.2781663   9.5328033   7.5378213  63.8040233  10.2789373
   6.9813143  65.1523233   9.8736373   4.9607453  63.3190303  11.8512243
   4.6564523  64.1982283  12.0762603   5.9153913  63.3790093  11.8869683
   3.4889243  67.5251293   2.4479093   2.7151503  66.9848913   2.2877813
   4.2183873  67.0057903   2.1096853  14.2477223  66.5216653   8.2405483
  14.9676343  67.0171943   7.8501593  14.0459043  65.8434543   7.5959353
   9.7087163  57.9154613   2.3834873   8.8951773  57.4167783   2.3080183
   9.5149113  58.7552863   1.9671223   9.6296023  66.5925713  14.1274483
   9.5633333  65.6721383  13.8732073   9.0001163  66.6901153  14.8419123
   3.5326643  67.1931673   6.0857903   4.0505313  66.3899933   6.0314793
   3.0810663  67.1310813   6.9274733   4.2184303  64.6177283  15.8823153
   3.9184443  64.7634463  14.9850973   4.9895543  64.0582573  15.7896543
   9.5612753  69.4146283  13.8778283   9.5757293  68.4827243  13.6597193
   8.8537853  69.5006043  14.5168053  15.7723963  66.0553623  13.2246863
  15.0472153  66.6482403  13.0276253  16.2999423  66.0477163  12.4260233
  15.7237073  70.4528363   2.8759023  15.0813233  69.7983983   3.1502743
  15.3367733  70.8583453   2.0999693  11.3023553  67.7813793   6.7230713
  11.6547373  67.1841923   6.0632083  10.4185883  67.4558023   6.8938963
   7.3886833  68.5411483   4.1301123   8.0757963  69.0880693   4.5108713
   6.6019253  69.0852213   4.1650733   6.6914043  65.5457513   3.7426483
   7.1476823  66.3562763   3.9686673   6.3402253  65.2280653   4.5744973
   8.9946653  71.0563853  10.9718783   9.6388873  71.2623233  11.6492203
   9.3576093  70.2952253  10.5189633   2.5925823  55.8895163   4.2149003
   2.4640453  55.8813063   5.1633923   1.7687843  56.2278253   3.8640013
  10.2678733  69.0596203   9.6896233  10.9100963  68.3589363   9.8028403
  10.7928083  69.8394643   9.5093123  12.0416353  69.8591103  12.8932293
  12.3772593  70.4457793  13.5710213  11.1216693  69.7283813  13.1230083
   7.8704933  69.9082433  16.0620353   7.5501803  69.1891673  16.6066043
   7.1963293  70.5837503  16.1356413  11.0858533  60.1408593  11.4257153
  11.4539353  59.3203803  11.7536723  10.2256733  60.2010483  11.8412803
   6.4204593  61.3751483   3.6502593   5.7120743  61.8437823   4.0916203
   6.7049073  60.7173493   4.2847783   8.0460523  62.7948183  11.6495123
   8.5445773  63.2694003  12.3146973   8.1883473  61.8711703  11.8565153
  10.4520023  58.1002143   5.0898383  10.3287803  58.1188273   4.1407893
  11.4004583  58.1481083   5.2096783  15.2527383  59.0116143  12.4923513
  14.7500983  59.7521543  12.8317323  16.0684043  59.4000143  12.1760303
  13.5449393  64.2549323   5.9384873  12.6039533  64.2699553   6.1132563
  13.8593463  63.4685283   6.3845173  10.8615413  68.8115323  16.4217253
  10.2553573  68.8346923  15.6813003  10.5569523  68.0798363  16.9584503
   6.7986533  66.5979903  14.9513413   6.0332203  67.1664903  14.8668083
   6.9802493  66.3056113  14.0581643  13.9409883  68.3285233  15.5088433
  14.6819353  68.6660993  15.0055893  13.1782563  68.4977293  14.9558203
   1.7771673  63.3338503  16.3127963   1.8177013  63.0352373  17.2213193
   2.6317173  63.7346113  16.1535483   3.7177483  61.9130603  14.2802453
   3.1873943  61.4221553  13.6525793   4.3865553  62.3414803  13.7460383
  12.6155543  66.3800063  14.0443643  13.0296563  66.5345143  14.8934063
  11.6806543  66.5055283  14.2069423  13.0877713  63.7196223  16.0482793
  13.6698483  62.9648543  15.9603273  13.2639483  64.2503663  15.2714273
   4.2049783  58.8792973  14.3599743   4.1106653  58.2613723  13.6350613
   3.6247173  59.6059263  14.1329653   6.9711223  57.4366213  11.3927133
   6.5228523  57.4590473  10.5472683   6.3376423  57.0385233  11.9897433
   7.3770773  66.3320543  12.0139573   7.7958883  67.1753273  11.8415813
   6.4579403  66.4692583  11.7846353   9.7134673  64.0636723  13.3977413
   9.8330883  63.4677863  14.1372253  10.5728673  64.1006413  12.9778713
  12.0522573  64.6173913  11.9739923  11.5257793  65.1416533  11.3705063
  12.3953913  65.2501303  12.6049653   6.4803443  60.6058073  14.6553233
   7.0703133  60.2973923  15.3431053   5.6623683  60.1337823  14.8113133
  11.2996873  60.2223883  14.8886253  10.6112393  59.5605423  14.8236243
  12.0202893  59.7762153  15.3334713   4.0829613  69.5308363   4.3519543
   3.7825153  69.4073333   5.2523453   3.9767103  68.6716953   3.9435273
  17.3137963  66.9102343   6.4022353  17.6846793  66.1269663   5.9958323
  17.9539893  67.5991443   6.2239653  14.2971723  68.2938923  11.8152673
  13.4831563  68.7236083  12.0778463  14.7045923  68.9057333  11.2021723
  16.2562503  64.2855603   3.7082373  15.8806103  63.5183533   3.2763663
  15.5265623  64.6678303   4.1957303  15.6462123  63.4327123  13.3421893
  15.4148213  63.2039873  12.4419843  15.9066673  64.3526673  13.2966783
  14.0850193  58.6583553  16.1201593  14.9620373  58.6666953  16.5035593
  14.0971033  57.9214393  15.5093943  15.5313463  62.5113093   7.0089613
  16.0550943  62.0175743   6.3779783  16.1172883  62.6463453   7.7537183
  15.7103183  62.5952963  10.5309163  14.7605893  62.5616503  10.6454153
  15.8916193  63.5053073  10.2958933  15.0213433  61.7686443   2.9482023
  15.5172553  61.5357313   3.7330903  14.8229503  60.9298283   2.5319663
  16.4500593  60.4047393   5.4819703  16.3399873  60.2503433   6.4201973
  17.2108183  59.8768333   5.2395113  14.7966313  56.3441523  11.9402703
  15.4338533  56.9575663  12.3061893  14.9441203  56.3802183  10.9951933
   2.2610343  69.4775433  15.4911573   2.2179973  69.1068343  16.3726033
   2.3921353  70.4153003  15.6313393   5.9616373  71.0335023  11.0921293
   5.7207733  71.3009583  10.2051813   6.9019013  71.2040753  11.1472153
   8.1670793  57.4967713  14.8477803   8.1059683  58.0889543  15.5973213
   9.1071173  57.3893673  14.7028063  10.8045353  57.1537773  14.4870093
  11.4185763  57.4717063  13.8251173  11.3494913  56.6686363  15.1065953
  11.5453393  55.7169913  10.8139383  10.6713233  56.0505023  10.6112313
  11.4364143  55.2443093  11.6391253  12.4525373  57.9240783  12.1981103
  12.1238733  57.1092543  11.8182833  13.4007673  57.8810593  12.0746793
   9.2928213  56.6339753   9.7532293   8.5100003  57.1085253  10.0329053
   8.9991143  55.7294583   9.6445473  13.8449283  57.3362853   7.7981383
  14.2857373  57.2807953   6.9502983  13.5756873  58.2520863   7.8691563
  15.7087853  56.9678093   5.8090203  15.6476253  56.0239313   5.6621223
  16.4879883  57.0758183   6.3543663   7.1782433  59.0526503   5.2648323
   6.3656943  58.6783393   4.9244203   7.6824073  58.2971583   5.5669513
  11.6807413  55.7168953   6.5031393  12.2836783  56.2889163   6.9779913
  10.9400403  56.2808393   6.2805293  14.8242013  56.1190513   1.7771673
  15.0192643  57.0173963   2.0439103  14.0371883  55.8877593   2.2704623
   5.2031613  57.2026423   3.8693373   4.5734353  56.5013733   4.0363503
   4.6636753  57.9630553   3.6526533   5.3287173  56.4810403  16.3045863
   5.0471443  56.9844003  15.5406683   5.7106873  55.6832153  15.9387993
  11.9302633  55.8963983  16.8826333  11.8168083  56.2158593  17.7777853
  12.7472373  56.2976493  16.5863613  10.8360783  45.1412963  62.3435033
  10.7554833  44.2267573  62.0726743  10.4225203  45.6380033  61.6374743
   8.9678823  46.9191983  64.2244303   8.1920923  46.4392423  64.5142873
   9.6191753  46.2397633  64.0500463   2.9844653  47.2311793  65.1020063
   2.1529533  46.9760503  65.5016573   3.5925633  47.3022563  65.8377983
  12.9886253  51.3252173  63.0043433  12.5267783  50.5539413  63.3330603
  13.8011803  51.3518243  63.5095883   2.9645913  51.2651883  65.2978083
   3.2673953  50.3749623  65.1188303   3.7089503  51.8222103  65.0700333
   9.2149563  53.6110183  62.6247423   8.5961003  54.0667683  62.0541863
  10.0701343  53.7661643  62.2237123   8.4087813  49.5949173  64.2314463
   8.3396093  48.6539113  64.0703593   9.1707673  49.6850583  64.8037033
   9.4392983  42.4019553  64.4583393   9.8157803  41.5291433  64.3457063
   9.3412493  42.7378253  63.5673833   3.5697993  40.7745183  59.9200833
   3.6764743  41.6748913  60.2269593   2.6590353  40.7263153  59.6295483
  13.2217103  39.8969993  61.3911733  14.0426723  39.4066563  61.4337213
  13.2551183  40.4867653  62.1443573   5.4105723  43.7431553  64.2526013
   5.9183943  44.2412523  64.8931033   5.9418963  42.9666753  64.0765373
  17.5116653  41.9136743  67.9555363  16.8068823  42.3018453  67.4370473
  17.7774573  42.6087033  68.5576293   3.6941823  38.3830113  68.5189433
   3.6960263  38.9002503  67.7135333   2.8646133  37.9060293  68.4959363
  10.0812913  48.4949423  60.0179333   9.4630183  48.9598873  59.4542053
  10.5936163  49.1876903  60.4348843   4.9444673  48.0225293  66.6962933
   4.6114053  48.6494213  67.3384003   5.1211353  48.5487173  65.9164603
  13.4578583  41.8370373  64.1639273  12.7534153  42.1255263  64.7442383
  13.8190743  42.6470483  63.8038833   3.3757153  40.0940073  66.5259883
   3.7173963  40.9382123  66.2313753   2.4372963  40.2423813  66.6425223
   4.1563773  49.9906093  68.5112113   4.7737773  50.6657173  68.2296563
   3.2956893  50.3994073  68.4199613  15.0741363  51.4545503  66.4266753
  14.3904883  52.1244613  66.4183423  15.6135653  51.6526153  65.6611613
  16.5265503  41.2825163  64.5548483  15.5790413  41.3164143  64.6863913
  16.8515493  42.0964113  64.9397843   7.0585043  37.5822343  62.8504473
   7.3660023  37.0269233  62.1339973   6.1285743  37.7166803  62.6677463
  12.6100103  53.2989633  65.1411933  12.6227263  52.8951923  64.2734193
  12.0575323  54.0736923  65.0373363  13.9045523  50.0205853  60.2302103
  13.7941853  49.0780183  60.3551523  13.9013773  50.3821493  61.1164863
  12.0085543  48.2019473  66.4694543  12.4254333  47.9879583  65.6348003
  12.7325363  48.4592263  67.0403163   9.4465803  45.6471173  59.5864593
   8.5195083  45.5808553  59.8153063   9.5990623  46.5851303  59.4719833
   9.4334883  41.9188173  56.5831753   8.4938553  42.0802133  56.6684213
   9.7518143  42.6373853  56.0367743  15.9547643  46.6006693  66.5610783
  15.1266273  46.6699783  66.0860913  16.5498123  47.1861003  66.0926613
  13.4763093  47.2091473  60.0899843  12.8575513  46.8711023  59.4426143
  13.4587543  46.5651233  60.7979033  12.9189653  43.3876013  67.5065653
  12.5060833  44.2129723  67.7605643  12.1865603  42.8021053  67.3142013
   5.0522443  46.1735913  62.3684323   4.6479443  45.4613163  61.8730223
   5.1385563  45.8289153  63.2572363   5.5204143  49.8603473  64.5323533
   5.2232433  49.2548943  63.8531313   6.4703963  49.8980783  64.4212893
   3.7651063  42.9479123  66.1483363   4.3165653  43.0574463  65.3736613
   4.2794573  43.3216723  66.8638593  13.6089753  53.4335343  68.1946633
  13.1320313  54.2407533  68.0019243  12.9251543  52.7813673  68.3472843
  11.6527793  46.4478283  57.0972593  12.0921073  45.6100713  56.9510413
  12.3656213  47.0807683  57.1836733   9.7623173  51.3874353  61.0653833
  10.2019083  52.1298683  60.6509223   9.7010063  51.6300923  61.9892793
  15.2344933  37.7021093  55.4113633  14.9217593  37.7947923  56.3112703
  15.9957403  38.2802123  55.3611063  10.4538953  54.0888133  68.9932843
  10.9683623  53.9996143  69.7955273   9.6108033  54.4347833  69.2860753
  12.4293353  54.3743473  58.4216843  12.2694493  54.0846413  59.3198673
  12.2640063  53.5983603  57.8862073   4.9081733  54.1542003  60.1988463
   4.7324213  53.2377543  59.9856263   4.0537473  54.5129293  60.4386263
  12.1319483  51.8831033  56.9814843  11.4384643  51.8808323  56.3217123
  12.8742343  51.4590353  56.5509013  11.6969413  53.5093743  61.0563333
  12.1526363  52.7283123  61.3701953  12.0361933  54.2200563  61.6004513
   4.2190733  38.4115963  63.2514643   3.7758883  39.1925503  62.9199163
   4.7775723  38.7345853  63.9585583   8.5060543  41.2784483  68.8549963
   8.0439913  41.4867503  69.6669903   8.1038653  40.4643833  68.5520633
   7.3349553  38.0326663  58.1320473   6.7103733  38.0286533  58.8573783
   7.2479673  37.1657623  57.7356443   6.2566633  38.9563293  65.1104243
   6.5538963  39.8626123  65.0296263   6.8052193  38.4682073  64.4963813
   4.0104953  43.5349533  60.9795893   3.7845873  43.3186703  61.8842513
   3.2297483  43.9677993  60.6341863  11.2402713  43.5412903  59.5786543
  10.6411603  44.2648703  59.3950163  11.7882323  43.4789683  58.7962993
   9.8467583  42.1776443  61.6089823  10.2397153  42.4948643  60.7958513
  10.2084433  41.2988323  61.7234343  10.4322723  44.7682193  65.7040603
   9.7003843  45.2769003  66.0530703  10.0347063  43.9512173  65.4029383
   6.8700113  41.4436393  64.1093093   6.8736173  41.0026343  63.2597633
   7.7651233  41.7653723  64.2164913   2.7202493  41.3262883  63.0687303
   2.3802543  41.8038113  63.8254353   1.9579813  40.8728003  62.7088403
   6.9320263  42.4448473  57.0999853   7.0533083  42.4034953  58.0485673
   6.5468773  43.3072623  56.9446583  10.8948633  40.2215873  65.1163543
  10.9121373  40.6724523  65.9605393  10.6464213  39.3221513  65.3296983
   5.9441763  44.7549613  56.4983153   5.3758663  44.3067863  55.8719063
   6.6530763  45.1142393  55.9648303   7.1708083  45.5038173  65.8558503
   7.5378213  45.0296743  66.6019843   6.9813143  46.3779743  66.1966843
   4.9607453  44.5446813  68.1742713   4.6564523  45.4238793  68.3993073
   5.9153913  44.6046603  68.2100153   3.4889243  48.7507803  58.7709563
   2.7151503  48.2105423  58.6108283   4.2183873  48.2314413  58.4327323
  14.2477223  47.7473163  64.5635953  14.9676343  48.2428453  64.1732063
  14.0459043  47.0691053  63.9189823   9.7087163  39.1411123  58.7065343
   8.8951773  38.6424293  58.6310653   9.5149113  39.9809373  58.2901693
  12.4235553  43.5130773  57.0027503  13.3115173  43.8248003  56.8278843
  12.3940643  42.6403023  56.6108083   3.5326643  48.4188183  62.4088373
   4.0505313  47.6156443  62.3545263   3.0810663  48.3567323  63.2505203
   8.4196143  49.6854463  57.6815673   8.7611843  50.4296693  57.1858993
   7.5908853  49.9985583  58.0440503  14.6949823  44.8242613  56.4707363
  14.6113543  45.2556833  55.6203803  15.4144013  45.2840963  56.9034183
  15.7723963  47.2810133  69.5477333  15.0472153  47.8738913  69.3506723
  16.2999423  47.2733673  68.7490703  15.7237073  51.6784873  59.1989493
  15.0813233  51.0240493  59.4733213  15.3367733  52.0839963  58.4230163
  11.3023553  49.0070303  63.0461183  11.6547373  48.4098433  62.3862553
  10.4185883  48.6814533  63.2169433   7.3886833  49.7667993  60.4531593
   8.0757963  50.3137203  60.8339183   6.6019253  50.3108723  60.4881203
   6.6914043  46.7714023  60.0656953   7.1476823  47.5819273  60.2917143
   6.3402253  46.4537163  60.8975443   8.9946653  52.2820363  67.2949253
   9.6388873  52.4879743  67.9722673   9.3576093  51.5208763  66.8420103
   2.5925823  37.1151673  60.5379473   2.4640453  37.1069573  61.4864393
   1.7687843  37.4534763  60.1870483  10.2678733  50.2852713  66.0126703
  10.9100963  49.5845873  66.1258873  10.7928083  51.0651153  65.8323593
  14.1134453  50.5701333  55.7365843  13.8872033  49.8531773  56.3290483
  13.7230653  50.3213773  54.8987593  13.6950703  48.4873273  57.3980003
  13.4072403  48.9485963  58.1857883  14.4902873  48.0271043  57.6664223
   5.9119103  51.9799393  57.3283973   5.9029203  52.7129083  56.7128483
   4.9917463  51.7330973  57.4210933  11.0858533  41.3665103  67.7487623
  11.4539353  40.5460313  68.0767193  10.2256733  41.4266993  68.1643273
  14.4520563  40.3222043  58.5575183  13.8233723  40.4267713  57.8433413
  13.9572483  40.5418823  59.3469063   8.8978703  52.0427633  55.9909163
   8.9990683  51.8391623  55.0611143   7.9980443  51.7885913  56.1956943
   6.4204593  42.6007993  59.9733063   5.7120743  43.0694333  60.4146673
   6.7049073  41.9430003  60.6078253   8.0460523  44.0204693  67.9725593
   8.5445773  44.4950513  68.6377443   8.1883473  43.0968213  68.1795623
  10.4520023  39.3258653  61.4128853  10.3287803  39.3444783  60.4638363
  11.4004583  39.3737593  61.5327253   7.5396813  54.5613953  60.6856833
   7.7938313  54.5235343  59.7636203   6.5909293  54.4347283  60.6785083
   4.6239613  40.9093073  57.3483773   5.4730143  41.3463223  57.2823963
   4.2570883  41.2213333  58.1755833  15.2527383  40.2372653  68.8153983
  14.7500983  40.9778053  69.1547793  16.0684043  40.6256653  68.4990773
  13.5449393  45.4805833  62.2615343  12.6039533  45.4956063  62.4363033
  13.8593463  44.6941793  62.7075643   3.5231033  47.1625433  55.8219303
   4.2894303  47.0506793  56.3844733   3.6005723  46.4663403  55.1696073
   2.2177793  44.5950503  56.5052193   2.2981383  43.6478013  56.6169593
   3.1097543  44.9257383  56.6112853  15.5474973  52.6514683  63.9369603
  15.6722393  53.4745853  64.4093413  16.4140533  52.4405413  63.5893753
   3.0192503  54.7445893  63.6086733   3.7554983  54.1961353  63.8795303
   3.4033423  55.6101903  63.4692723   6.1294813  53.9176203  55.4312303
   6.9223423  54.2065033  54.9794093   5.6099163  53.4868373  54.7524783
  15.1824983  53.1446333  56.8549043  14.8966493  52.7311473  56.0403223
  14.9844533  54.0734043  56.7349563   6.6472213  49.1379613  55.2954653
   6.5422853  48.5231963  56.0216033   6.4796433  48.6145503  54.5117663
   9.8874943  48.1999643  55.8996643   9.3385043  48.6468943  56.5439383
  10.5094203  47.6948893  56.4234313   5.5550063  47.1590563  57.7961943
   5.9766483  46.9930433  58.6393333   5.6800903  46.3490793  57.3017083
   8.0677703  46.1828173  55.0439043   8.5883363  45.4677193  54.6780193
   8.7146103  46.8214043  55.3439553   6.9711223  38.6622723  67.7157603
   6.5228523  38.6846983  66.8703153   6.3376423  38.2641743  68.3127903
   7.3770773  47.5577053  68.3370043   7.7958883  48.4009783  68.1646283
   6.4579403  47.6949093  68.1076823  12.0522573  45.8430423  68.2970393
  11.5257793  46.3673043  67.6935533  12.3953913  46.4757813  68.9280123
   4.4508963  43.2323793  54.7420103   4.2498023  42.3691153  55.1033443
   4.2801013  43.1457153  53.8041703   5.2278193  53.8630063  69.4527773
   4.6899283  54.5876123  69.1336473   5.4812153  53.3860403  68.6625113
  11.9297273  38.0432023  57.2706983  12.2099563  37.1999923  57.6266403
  11.1563003  38.2755133  57.7845733   3.2491763  40.3324413  54.7297983
   3.5517663  40.3391843  53.8217133   3.9886353  39.9822273  55.2265643
   6.4676693  39.2759033  55.7154183   6.1198693  38.5983023  55.1356633
   6.6689463  38.8148543  56.5297573   8.6325733  54.2639783  57.3340783
   9.5276523  54.6024753  57.3559543   8.6643363  53.5419193  56.7065063
   2.2721893  49.6366833  55.5627783   2.7096763  50.1796503  56.2185363
   2.7569623  48.8113783  55.5724123   4.0829613  50.7564873  60.6750013
   3.7825153  50.6329843  61.5753923   3.9767103  49.8973463  60.2665743
  16.8521533  50.5361273  55.3776693  16.0214493  50.6037923  55.8483923
  17.0293363  51.4265393  55.0743553  16.3077993  47.2808753  57.8810893
  17.0696903  47.8505403  57.9870583  16.3232363  46.7135953  58.6519203
  17.3137963  48.1358853  62.7252823  17.6846793  47.3526173  62.3188793
  17.9539893  48.8247953  62.5470123  14.2971723  49.5195433  68.1383143
  13.4831563  49.9492593  68.4008933  14.7045923  50.1313843  67.5252193
  16.3597163  47.5743123  55.0383413  16.6346003  48.4822003  54.9102633
  16.1707903  47.5105653  55.9745403  12.7572773  40.5987973  56.3337043
  13.1757653  40.4118953  55.4933703  12.4508833  39.7467023  56.6439973
  16.2562503  45.5112113  60.0312843  15.8806103  44.7440043  59.5994133
  15.5265623  45.8934813  60.5187773  15.6462123  44.6583633  69.6652363
  15.4148213  44.4296383  68.7650313  15.9066673  45.5783183  69.6197253
  15.5313463  43.7369603  63.3320083  16.0550943  43.2432253  62.7010253
  16.1172883  43.8719963  64.0767653  15.7103183  43.8209473  66.8539633
  14.7605893  43.7873013  66.9684623  15.8916193  44.7309583  66.6189403
  15.0213433  42.9942953  59.2712493  15.5172553  42.7613823  60.0561373
  14.8229503  42.1554793  58.8550133  16.4500593  41.6303903  61.8050173
  16.3399873  41.4759943  62.7432443  17.2108183  41.1024843  61.5625583
  14.7966313  37.5698033  68.2633173  15.4338533  38.1832173  68.6292363
  14.9441203  37.6058693  67.3182403  17.3390863  39.4611823  55.0456313
  18.2640173  39.3293003  54.8374603  17.3166653  39.5404643  55.9992763
  17.4129353  40.2322483  57.6713023  16.6180853  40.1667603  58.2005933
  17.6172633  41.1673123  57.6598373  14.3547773  54.2714033  61.6651413
  14.9506843  53.9498603  60.9885833  14.6125923  53.7985853  62.4564683
   5.9616373  52.2591533  67.4151763   5.7207733  52.5266093  66.5282283
   6.9019013  52.4297263  67.4702623  17.2220533  54.2785913  68.2162403
  16.7278813  54.6754783  67.4989533  16.6133823  53.6535123  68.6099683
   2.0998373  53.6494193  68.9339823   1.5058693  53.5178893  69.6729863
   2.0922213  52.8132333  68.4681923  11.5453393  36.9426423  67.1369853
  10.6713233  37.2761533  66.9342783  11.4364143  36.4699603  67.9621723
  12.4525373  39.1497293  68.5211573  12.1238733  38.3349053  68.1413303
  13.4007673  39.1067103  68.3977263  14.9059983  54.9209333  65.4949143
  14.4462953  55.6725143  65.1207163  14.2772443  54.2015803  65.4363943
   5.3355703  53.2297573  64.6697273   5.8520723  52.6184933  64.1445533
   5.9853083  53.7326353  65.1608283   8.0751203  54.1206063  65.4966253
   8.3629013  53.8660363  64.6199263   8.5874423  53.5683423  66.0871823
   9.2928213  37.8596263  66.0762763   8.5100003  38.3341763  66.3559523
   8.9991143  36.9551093  65.9675943  13.8449283  38.5619363  64.1211853
  14.2857373  38.5064463  63.2733453  13.5756873  39.4777373  64.1922033
  15.7087853  38.1934603  62.1320673  15.6476253  37.2495823  61.9851693
  16.4879883  38.3014693  62.6774133   7.1782433  40.2783013  61.5878793
   6.3656943  39.9039903  61.2474673   7.6824073  39.5228093  61.8899983
  11.6807413  36.9425463  62.8261863  12.2836783  37.5145673  63.3010383
  10.9400403  37.5064903  62.6035763  14.8242013  37.3447023  58.1002143
  15.0192643  38.2430473  58.3669573  14.0371883  37.1134103  58.5935093
   3.0093773  38.6907793  57.1378453   3.5386533  37.9037593  57.0086403
   3.6422093  39.3698983  57.3713983   5.2031613  38.4282933  60.1923843
   4.5734353  37.7270243  60.3593973   4.6636753  39.1887063  59.9757003
  16.3768623  54.5847733  59.8608703  16.5520813  53.8985473  59.2169623
  15.6790193  55.1094783  59.4685373   4.2196273  54.9742573  57.4144013
   4.9515093  54.6901853  56.8667903   4.4789943  54.7355853  58.3043393
   3.3811063  51.0907303  57.4190343   2.7519943  51.5592403  57.9676173
   3.4958893  50.2456523  57.8536533  10.8360783  45.1412963  43.5691543
  10.7554833  44.2267573  43.2983253  10.4225203  45.6380033  42.8631253
   8.9678823  46.9191983  45.4500813   8.1920923  46.4392423  45.7399383
   9.6191753  46.2397633  45.2756973   2.9844653  47.2311793  46.3276573
   2.1529533  46.9760503  46.7273083   3.5925633  47.3022563  47.0634493
  12.9886253  51.3252173  44.2299943  12.5267783  50.5539413  44.5587113
  13.8011803  51.3518243  44.7352393   2.9645913  51.2651883  46.5234593
   3.2673953  50.3749623  46.3444813   3.7089503  51.8222103  46.2956843
   9.2149563  53.6110183  43.8503933   8.5961003  54.0667683  43.2798373
  10.0701343  53.7661643  43.4493633   8.4087813  49.5949173  45.4570973
   8.3396093  48.6539113  45.2960103   9.1707673  49.6850583  46.0293543
   9.4392983  42.4019553  45.6839903   9.8157803  41.5291433  45.5713573
   9.3412493  42.7378253  44.7930343   3.5697993  40.7745183  41.1457343
   3.6764743  41.6748913  41.4526103   2.6590353  40.7263153  40.8551993
  13.2217103  39.8969993  42.6168243  14.0426723  39.4066563  42.6593723
  13.2551183  40.4867653  43.3700083   5.4105723  43.7431553  45.4782523
   5.9183943  44.2412523  46.1187543   5.9418963  42.9666753  45.3021883
  17.5116653  41.9136743  49.1811873  16.8068823  42.3018453  48.6626983
  17.7774573  42.6087033  49.7832803   3.6941823  38.3830113  49.7445943
   3.6960263  38.9002503  48.9391843   2.8646133  37.9060293  49.7215873
  10.0812913  48.4949423  41.2435843   9.4630183  48.9598873  40.6798563
  10.5936163  49.1876903  41.6605353   4.9444673  48.0225293  47.9219443
   4.6114053  48.6494213  48.5640513   5.1211353  48.5487173  47.1421113
  13.4578583  41.8370373  45.3895783  12.7534153  42.1255263  45.9698893
  13.8190743  42.6470483  45.0295343   3.3757153  40.0940073  47.7516393
   3.7173963  40.9382123  47.4570263   2.4372963  40.2423813  47.8681733
   4.1563773  49.9906093  49.7368623   4.7737773  50.6657173  49.4553073
   3.2956893  50.3994073  49.6456123  15.0741363  51.4545503  47.6523263
  14.3904883  52.1244613  47.6439933  15.6135653  51.6526153  46.8868123
  16.5265503  41.2825163  45.7804993  15.5790413  41.3164143  45.9120423
  16.8515493  42.0964113  46.1654353   7.0585043  37.5822343  44.0760983
   7.3660023  37.0269233  43.3596483   6.1285743  37.7166803  43.8933973
  12.6100103  53.2989633  46.3668443  12.6227263  52.8951923  45.4990703
  12.0575323  54.0736923  46.2629873  13.9045523  50.0205853  41.4558613
  13.7941853  49.0780183  41.5808033  13.9013773  50.3821493  42.3421373
  12.0085543  48.2019473  47.6951053  12.4254333  47.9879583  46.8604513
  12.7325363  48.4592263  48.2659673   9.4465803  45.6471173  40.8121103
   8.5195083  45.5808553  41.0409573   9.5990623  46.5851303  40.6976343
   9.4334883  41.9188173  37.8088263   8.4938553  42.0802133  37.8940723
   9.7518143  42.6373853  37.2624253  15.9547643  46.6006693  47.7867293
  15.1266273  46.6699783  47.3117423  16.5498123  47.1861003  47.3183123
  13.4763093  47.2091473  41.3156353  12.8575513  46.8711023  40.6682653
  13.4587543  46.5651233  42.0235543  12.9189653  43.3876013  48.7322163
  12.5060833  44.2129723  48.9862153  12.1865603  42.8021053  48.5398523
   5.0522443  46.1735913  43.5940833   4.6479443  45.4613163  43.0986733
   5.1385563  45.8289153  44.4828873   5.5204143  49.8603473  45.7580043
   5.2232433  49.2548943  45.0787823   6.4703963  49.8980783  45.6469403
   3.7651063  42.9479123  47.3739873   4.3165653  43.0574463  46.5993123
   4.2794573  43.3216723  48.0895103  13.6089753  53.4335343  49.4203143
  13.1320313  54.2407533  49.2275753  12.9251543  52.7813673  49.5729353
   4.6122573  49.5985163  52.4087843   3.7151103  49.8225133  52.6561243
   4.6375443  49.7220103  51.4599243  11.6527793  46.4478283  38.3229103
  12.0921073  45.6100713  38.1766923  12.3656213  47.0807683  38.4093243
   3.4393793  46.4698483  50.9845213   3.3001563  47.3421283  51.3532613
   2.5575153  46.1271293  50.8393153   9.7623173  51.3874353  42.2910343
  10.2019083  52.1298683  41.8765733   9.7010063  51.6300923  43.2149303
   5.2374143  52.4120183  53.1930363   5.2089573  52.8163133  52.3258793
   5.0739113  51.4830543  53.0301963  15.2344933  37.7021093  36.6370143
  14.9217593  37.7947923  37.5369213  15.9957403  38.2802123  36.5867573
  17.1888963  53.1947283  54.4894533  17.6648683  53.6730173  55.1683613
  17.8096123  53.1264773  53.7640033  16.5922213  50.3860133  51.6494543
  16.7185273  50.1472013  50.7311723  16.6343593  49.5544673  52.1216623
  10.4538953  54.0888133  50.2189353  10.9683623  53.9996143  51.0211783
   9.6108033  54.4347833  50.5117263  12.4293353  54.3743473  39.6473353
  12.2694493  54.0846413  40.5455183  12.2640063  53.5983603  39.1118583
   4.9081733  54.1542003  41.4244973   4.7324213  53.2377543  41.2112773
   4.0537473  54.5129293  41.6642773  12.1319483  51.8831033  38.2071353
  11.4384643  51.8808323  37.5473633  12.8742343  51.4590353  37.7765523
  11.6969413  53.5093743  42.2819843  12.1526363  52.7283123  42.5958463
  12.0361933  54.2200563  42.8261023  16.4446223  42.4392593  52.6144283
  15.8290493  42.9472263  52.0859743  16.1242643  41.5390923  52.5570223
   4.2190733  38.4115963  44.4771153   3.7758883  39.1925503  44.1455673
   4.7775723  38.7345853  45.1842093   8.5060543  41.2784483  50.0806473
   8.0439913  41.4867503  50.8926413   8.1038653  40.4643833  49.7777143
  13.5065053  42.4993433  51.2103133  12.6558643  42.1999183  51.5312203
  13.3466843  42.7435443  50.2986953  10.6014763  43.9995183  53.3101923
  10.9268173  43.1658933  52.9704153  11.3895093  44.5223703  53.4580253
   7.3349553  38.0326663  39.3576983   6.7103733  38.0286533  40.0830293
   7.2479673  37.1657623  38.9612953   6.2566633  38.9563293  46.3360753
   6.5538963  39.8626123  46.2552773   6.8052193  38.4682073  45.7220323
   4.0104953  43.5349533  42.2052403   3.7845873  43.3186703  43.1099023
   3.2297483  43.9677993  41.8598373  11.2402713  43.5412903  40.8043053
  10.6411603  44.2648703  40.6206673  11.7882323  43.4789683  40.0219503
   6.4504163  44.4335113  52.8712673   6.3547763  43.4929843  52.7213073
   7.2936143  44.6550183  52.4760743   9.8467583  42.1776443  42.8346333
  10.2397153  42.4948643  42.0215023  10.2084433  41.2988323  42.9490853
   8.1559753  40.9283753  54.0943193   7.4658073  40.7355953  54.7289283
   8.8992053  41.2118393  54.6267493  10.4322723  44.7682193  46.9297113
   9.7003843  45.2769003  47.2787213  10.0347063  43.9512173  46.6285893
   6.8700113  41.4436393  45.3349603   6.8736173  41.0026343  44.4854143
   7.7651233  41.7653723  45.4421423   2.7202493  41.3262883  44.2943813
   2.3802543  41.8038113  45.0510863   1.9579813  40.8728003  43.9344913
   6.9320263  42.4448473  38.3256363   7.0533083  42.4034953  39.2742183
   6.5468773  43.3072623  38.1703093  10.8948633  40.2215873  46.3420053
  10.9121373  40.6724523  47.1861903  10.6464213  39.3221513  46.5553493
   5.9441763  44.7549613  37.7239663   5.3758663  44.3067863  37.0975573
   6.6530763  45.1142393  37.1904813  14.3219383  37.6348053  52.1806433
  14.6465153  36.9037713  52.7064413  14.3575893  37.3161693  51.2787423
   7.1708083  45.5038173  47.0815013   7.5378213  45.0296743  47.8276353
   6.9813143  46.3779743  47.4223353   4.9607453  44.5446813  49.3999223
   4.6564523  45.4238793  49.6249583   5.9153913  44.6046603  49.4356663
   3.4889243  48.7507803  39.9966073   2.7151503  48.2105423  39.8364793
   4.2183873  48.2314413  39.6583833  14.2477223  47.7473163  45.7892463
  14.9676343  48.2428453  45.3988573  14.0459043  47.0691053  45.1446333
   9.7087163  39.1411123  39.9321853   8.8951773  38.6424293  39.8567163
   9.5149113  39.9809373  39.5158203   9.6296023  47.8182223  51.6761463
   9.5633333  46.8977893  51.4219053   9.0001163  47.9157663  52.3906103
  12.4235553  43.5130773  38.2284013  13.3115173  43.8248003  38.0535353
  12.3940643  42.6403023  37.8364593   3.5326643  48.4188183  43.6344883
   4.0505313  47.6156443  43.5801773   3.0810663  48.3567323  44.4761713
   8.4196143  49.6854463  38.9072183   8.7611843  50.4296693  38.4115503
   7.5908853  49.9985583  39.2697013   4.2184303  45.8433793  53.4310133
   3.9184443  45.9890973  52.5337953   4.9895543  45.2839083  53.3383523
   9.5612753  50.6402793  51.4265263   9.5757293  49.7083753  51.2084173
   8.8537853  50.7262553  52.0655033  14.6949823  44.8242613  37.6963873
  14.6113543  45.2556833  36.8460313  15.4144013  45.2840963  38.1290693
  15.7723963  47.2810133  50.7733843  15.0472153  47.8738913  50.5763233
  16.2999423  47.2733673  49.9747213  15.7237073  51.6784873  40.4246003
  15.0813233  51.0240493  40.6989723  15.3367733  52.0839963  39.6486673
  11.3023553  49.0070303  44.2717693  11.6547373  48.4098433  43.6119063
  10.4185883  48.6814533  44.4425943   7.3886833  49.7667993  41.6788103
   8.0757963  50.3137203  42.0595693   6.6019253  50.3108723  41.7137713
   6.6914043  46.7714023  41.2913463   7.1476823  47.5819273  41.5173653
   6.3402253  46.4537163  42.1231953   8.9946653  52.2820363  48.5205763
   9.6388873  52.4879743  49.1979183   9.3576093  51.5208763  48.0676613
   2.5925823  37.1151673  41.7635983   2.4640453  37.1069573  42.7120903
   1.7687843  37.4534763  41.4126993  10.2678733  50.2852713  47.2383213
  10.9100963  49.5845873  47.3515383  10.7928083  51.0651153  47.0580103
  14.1134453  50.5701333  36.9622353  13.8872033  49.8531773  37.5546993
  13.7230653  50.3213773  36.1244103  12.0416353  51.0847613  50.4419273
  12.3772593  51.6714303  51.1197193  11.1216693  50.9540323  50.6717063
  13.6950703  48.4873273  38.6236513  13.4072403  48.9485963  39.4114393
  14.4902873  48.0271043  38.8920733   7.8704933  51.1338943  53.6107333
   7.5501803  50.4148183  54.1553023   7.1963293  51.8094013  53.6843393
   5.9119103  51.9799393  38.5540483   5.9029203  52.7129083  37.9384993
   4.9917463  51.7330973  38.6467443  11.0858533  41.3665103  48.9744133
  11.4539353  40.5460313  49.3023703  10.2256733  41.4266993  49.3899783
  14.4520563  40.3222043  39.7831693  13.8233723  40.4267713  39.0689923
  13.9572483  40.5418823  40.5725573   8.8978703  52.0427633  37.2165673
   8.9990683  51.8391623  36.2867653   7.9980443  51.7885913  37.4213453
   6.4204593  42.6007993  41.1989573   5.7120743  43.0694333  41.6403183
   6.7049073  41.9430003  41.8334763   8.0460523  44.0204693  49.1982103
   8.5445773  44.4950513  49.8633953   8.1883473  43.0968213  49.4052133
  10.4520023  39.3258653  42.6385363  10.3287803  39.3444783  41.6894873
  11.4004583  39.3737593  42.7583763   7.5396813  54.5613953  41.9113343
   7.7938313  54.5235343  40.9892713   6.5909293  54.4347283  41.9041593
   4.6239613  40.9093073  38.5740283   5.4730143  41.3463223  38.5080473
   4.2570883  41.2213333  39.4012343  15.2527383  40.2372653  50.0410493
  14.7500983  40.9778053  50.3804303  16.0684043  40.6256653  49.7247283
  13.5449393  45.4805833  43.4871853  12.6039533  45.4956063  43.6619543
  13.8593463  44.6941793  43.9332153   3.5231033  47.1625433  37.0475813
   4.2894303  47.0506793  37.6101243   3.6005723  46.4663403  36.3952583
   2.2177793  44.5950503  37.7308703   2.2981383  43.6478013  37.8426103
   3.1097543  44.9257383  37.8369363  15.5474973  52.6514683  45.1626113
  15.6722393  53.4745853  45.6349923  16.4140533  52.4405413  44.8150263
   3.0192503  54.7445893  44.8343243   3.7554983  54.1961353  45.1051813
   3.4033423  55.6101903  44.6949233   2.0250783  53.9291963  54.0228823
   2.8263513  54.2504013  54.4364223   1.5102603  53.5687543  54.7448733
   6.1294813  53.9176203  36.6568813   6.9223423  54.2065033  36.2050603
   5.6099163  53.4868373  35.9781293  10.8615413  50.0371833  53.9704233
  10.2553573  50.0603433  53.2299983  10.5569523  49.3054873  54.5071483
  12.2915783  53.7652123  52.5813643  13.2437533  53.6810143  52.5313883
  12.1444003  54.4293833  53.2547433  15.1824983  53.1446333  38.0805553
  14.8966493  52.7311473  37.2659733  14.9844533  54.0734043  37.9606073
   6.6472213  49.1379613  36.5211163   6.5422853  48.5231963  37.2472543
   6.4796433  48.6145503  35.7374173   6.7986533  47.8236413  52.5000393
   6.0332203  48.3921413  52.4155063   6.9802493  47.5312623  51.6068623
   9.8874943  48.1999643  37.1253153   9.3385043  48.6468943  37.7695893
  10.5094203  47.6948893  37.6490823  13.9409883  49.5541743  53.0575413
  14.6819353  49.8917503  52.5542873  13.1782563  49.7233803  52.5045183
   1.7771673  44.5595013  53.8614943   1.8177013  44.2608883  54.7700173
   2.6317173  44.9602623  53.7022463   5.5550063  47.1590563  39.0218453
   5.9766483  46.9930433  39.8649843   5.6800903  46.3490793  38.5273593
   3.7177483  43.1387113  51.8289433   3.1873943  42.6478063  51.2012773
   4.3865553  43.5671313  51.2947363   8.0677703  46.1828173  36.2695553
   8.5883363  45.4677193  35.9036703   8.7146103  46.8214043  36.5696063
  12.6155543  47.6056573  51.5930623  13.0296563  47.7601653  52.4421043
  11.6806543  47.7311793  51.7556403  13.0877713  44.9452733  53.5969773
  13.6698483  44.1905053  53.5090253  13.2639483  45.4760173  52.8201253
   4.2049783  40.1049483  51.9086723   4.1106653  39.4870233  51.1837593
   3.6247173  40.8315773  51.6816633   6.9711223  38.6622723  48.9414113
   6.5228523  38.6846983  48.0959663   6.3376423  38.2641743  49.5384413
   7.3770773  47.5577053  49.5626553   7.7958883  48.4009783  49.3902793
   6.4579403  47.6949093  49.3333333   9.7134673  45.2893233  50.9464393
   9.8330883  44.6934373  51.6859233  10.5728673  45.3262923  50.5265693
  12.0522573  45.8430423  49.5226903  11.5257793  46.3673043  48.9192043
  12.3953913  46.4757813  50.1536633   4.4508963  43.2323793  35.9676613
   4.2498023  42.3691153  36.3289953   4.2801013  43.1457153  35.0298213
   5.2278193  53.8630063  50.6784283   4.6899283  54.5876123  50.3592983
   5.4812153  53.3860403  49.8881623   6.4803443  41.8314583  52.2040213
   7.0703133  41.5230433  52.8918033   5.6623683  41.3594333  52.3600113
  11.2996873  41.4480393  52.4373233  10.6112393  40.7861933  52.3723223
  12.0202893  41.0018663  52.8821693  11.9297273  38.0432023  38.4963493
  12.2099563  37.1999923  38.8522913  11.1563003  38.2755133  39.0102243
   3.2491763  40.3324413  35.9554493   3.5517663  40.3391843  35.0473643
   3.9886353  39.9822273  36.4522153   8.0840403  55.0981273  50.9370933
   8.0099103  56.0016413  51.2443303   7.1819243  54.7793173  50.9093003
   6.4676693  39.2759033  36.9410693   6.1198693  38.5983023  36.3613143
   6.6689463  38.8148543  37.7554083   8.6325733  54.2639783  38.5597293
   9.5276523  54.6024753  38.5816053   8.6643363  53.5419193  37.9321573
   2.2721893  49.6366833  36.7884293   2.7096763  50.1796503  37.4441873
   2.7569623  48.8113783  36.7980633   4.0829613  50.7564873  41.9006523
   3.7825153  50.6329843  42.8010433   3.9767103  49.8973463  41.4922253
  15.6120083  52.7943453  51.2663493  15.0122073  52.8536013  50.5227413
  15.7413983  51.8548433  51.3960343  16.8521533  50.5361273  36.6033203
  16.0214493  50.6037923  37.0740433  17.0293363  51.4265393  36.3000063
  16.3077993  47.2808753  39.1067403  17.0696903  47.8505403  39.2127093
  16.3232363  46.7135953  39.8775713  17.3137963  48.1358853  43.9509333
  17.6846793  47.3526173  43.5445303  17.9539893  48.8247953  43.7726633
  14.2971723  49.5195433  49.3639653  13.4831563  49.9492593  49.6265443
  14.7045923  50.1313843  48.7508703  16.3597163  47.5743123  36.2639923
  16.6346003  48.4822003  36.1359143  16.1707903  47.5105653  37.2001913
  12.7572773  40.5987973  37.5593553  13.1757653  40.4118953  36.7190213
  12.4508833  39.7467023  37.8696483  16.2562503  45.5112113  41.2569353
  15.8806103  44.7440043  40.8250643  15.5265623  45.8934813  41.7444283
  15.6462123  44.6583633  50.8908873  15.4148213  44.4296383  49.9906823
  15.9066673  45.5783183  50.8453763  14.0850193  39.8840063  53.6688573
  14.9620373  39.8923463  54.0522573  14.0971033  39.1470903  53.0580923
  15.5313463  43.7369603  44.5576593  16.0550943  43.2432253  43.9266763
  16.1172883  43.8719963  45.3024163  15.7103183  43.8209473  48.0796143
  14.7605893  43.7873013  48.1941133  15.8916193  44.7309583  47.8445913
  15.0213433  42.9942953  40.4969003  15.5172553  42.7613823  41.2817883
  14.8229503  42.1554793  40.0806643  16.4500593  41.6303903  43.0306683
  16.3399873  41.4759943  43.9688953  17.2108183  41.1024843  42.7882093
  14.7966313  37.5698033  49.4889683  15.4338533  38.1832173  49.8548873
  14.9441203  37.6058693  48.5438913  17.3390863  39.4611823  36.2712823
  18.2640173  39.3293003  36.0631113  17.3166653  39.5404643  37.2249273
  17.4129353  40.2322483  38.8969533  16.6180853  40.1667603  39.4262443
  17.6172633  41.1673123  38.8854883  14.3547773  54.2714033  42.8907923
  14.9506843  53.9498603  42.2142343  14.6125923  53.7985853  43.6821193
   2.2610343  50.7031943  53.0398553   2.2179973  50.3324853  53.9213013
   2.3921353  51.6409513  53.1800373   5.9616373  52.2591533  48.6408273
   5.7207733  52.5266093  47.7538793   6.9019013  52.4297263  48.6959133
   8.1670793  38.7224223  52.3964783   8.1059683  39.3146053  53.1460193
   9.1071173  38.6150183  52.2515043  10.8045353  38.3794283  52.0357073
  11.4185763  38.6973573  51.3738153  11.3494913  37.8942873  52.6552933
  17.2220533  54.2785913  49.4418913  16.7278813  54.6754783  48.7246043
  16.6133823  53.6535123  49.8356193   2.0998373  53.6494193  50.1596333
   1.5058693  53.5178893  50.8986373   2.0922213  52.8132333  49.6938433
  11.5453393  36.9426423  48.3626363  10.6713233  37.2761533  48.1599293
  11.4364143  36.4699603  49.1878233  12.4525373  39.1497293  49.7468083
  12.1238733  38.3349053  49.3669813  13.4007673  39.1067103  49.6233773
  14.9059983  54.9209333  46.7205653  14.4462953  55.6725143  46.3463673
  14.2772443  54.2015803  46.6620453   5.3355703  53.2297573  45.8953783
   5.8520723  52.6184933  45.3702043   5.9853083  53.7326353  46.3864793
   8.0751203  54.1206063  46.7222763   8.3629013  53.8660363  45.8455773
   8.5874423  53.5683423  47.3128333   9.2928213  37.8596263  47.3019273
   8.5100003  38.3341763  47.5816033   8.9991143  36.9551093  47.1932453
  13.8449283  38.5619363  45.3468363  14.2857373  38.5064463  44.4989963
  13.5756873  39.4777373  45.4178543  15.7087853  38.1934603  43.3577183
  15.6476253  37.2495823  43.2108203  16.4879883  38.3014693  43.9030643
   7.1782433  40.2783013  42.8135303   6.3656943  39.9039903  42.4731183
   7.6824073  39.5228093  43.1156493  11.6807413  36.9425463  44.0518373
  12.2836783  37.5145673  44.5266893  10.9400403  37.5064903  43.8292273
  14.8242013  37.3447023  39.3258653  15.0192643  38.2430473  39.5926083
  14.0371883  37.1134103  39.8191603   3.0093773  38.6907793  38.3634963
   3.5386533  37.9037593  38.2342913   3.6422093  39.3698983  38.5970493
   5.2031613  38.4282933  41.4180353   4.5734353  37.7270243  41.5850483
   4.6636753  39.1887063  41.2013513   8.1423563  55.0422163  54.0890963
   9.0690873  54.8066433  54.1326923   8.1273993  55.8694163  53.6076993
  16.3768623  54.5847733  41.0865213  16.5520813  53.8985473  40.4426133
  15.6790193  55.1094783  40.6941883   5.3287173  37.7066913  53.8532843
   5.0471443  38.2100513  53.0893663   5.7106873  36.9088663  53.4874973
   4.2196273  54.9742573  38.6400523   4.9515093  54.6901853  38.0924413
   4.4789943  54.7355853  39.5299903   3.3811063  51.0907303  38.6446853
   2.7519943  51.5592403  39.1932683   3.4958893  50.2456523  39.0793043
  11.9302633  37.1220493  54.4313313  11.8168083  37.4415103  55.3264833
  12.7472373  37.5233003  54.1350593  14.7101123  54.2692023  53.9132003
  15.5026443  53.7741253  53.7057963  15.0034273  54.9482163  54.5207613
  10.8360783  45.1412963  24.7948053  10.7554833  44.2267573  24.5239763
  10.4225203  45.6380033  24.0887763   8.9678823  46.9191983  26.6757323
   8.1920923  46.4392423  26.9655893   9.6191753  46.2397633  26.5013483
   2.9844653  47.2311793  27.5533083   2.1529533  46.9760503  27.9529593
   3.5925633  47.3022563  28.2891003  12.9886253  51.3252173  25.4556453
  12.5267783  50.5539413  25.7843623  13.8011803  51.3518243  25.9608903
   2.9645913  51.2651883  27.7491103   3.2673953  50.3749623  27.5701323
   3.7089503  51.8222103  27.5213353   9.2149563  53.6110183  25.0760443
   8.5961003  54.0667683  24.5054883  10.0701343  53.7661643  24.6750143
   8.4087813  49.5949173  26.6827483   8.3396093  48.6539113  26.5216613
   9.1707673  49.6850583  27.2550053   9.4392983  42.4019553  26.9096413
   9.8157803  41.5291433  26.7970083   9.3412493  42.7378253  26.0186853
   3.5697993  40.7745183  22.3713853   3.6764743  41.6748913  22.6782613
   2.6590353  40.7263153  22.0808503  13.2217103  39.8969993  23.8424753
  14.0426723  39.4066563  23.8850233  13.2551183  40.4867653  24.5956593
   5.4105723  43.7431553  26.7039033   5.9183943  44.2412523  27.3444053
   5.9418963  42.9666753  26.5278393  17.5116653  41.9136743  30.4068383
  16.8068823  42.3018453  29.8883493  17.7774573  42.6087033  31.0089313
   3.6941823  38.3830113  30.9702453   3.6960263  38.9002503  30.1648353
   2.8646133  37.9060293  30.9472383  10.0812913  48.4949423  22.4692353
   9.4630183  48.9598873  21.9055073  10.5936163  49.1876903  22.8861863
   4.9444673  48.0225293  29.1475953   4.6114053  48.6494213  29.7897023
   5.1211353  48.5487173  28.3677623  13.4578583  41.8370373  26.6152293
  12.7534153  42.1255263  27.1955403  13.8190743  42.6470483  26.2551853
   3.3757153  40.0940073  28.9772903   3.7173963  40.9382123  28.6826773
   2.4372963  40.2423813  29.0938243   4.1563773  49.9906093  30.9625133
   4.7737773  50.6657173  30.6809583   3.2956893  50.3994073  30.8712633
  15.0741363  51.4545503  28.8779773  14.3904883  52.1244613  28.8696443
  15.6135653  51.6526153  28.1124633  16.5265503  41.2825163  27.0061503
  15.5790413  41.3164143  27.1376933  16.8515493  42.0964113  27.3910863
   7.0585043  37.5822343  25.3017493   7.3660023  37.0269233  24.5852993
   6.1285743  37.7166803  25.1190483  12.6100103  53.2989633  27.5924953
  12.6227263  52.8951923  26.7247213  12.0575323  54.0736923  27.4886383
  13.9045523  50.0205853  22.6815123  13.7941853  49.0780183  22.8064543
  13.9013773  50.3821493  23.5677883  12.0085543  48.2019473  28.9207563
  12.4254333  47.9879583  28.0861023  12.7325363  48.4592263  29.4916183
   9.4465803  45.6471173  22.0377613   8.5195083  45.5808553  22.2666083
   9.5990623  46.5851303  21.9232853   9.4334883  41.9188173  19.0344773
   8.4938553  42.0802133  19.1197233   9.7518143  42.6373853  18.4880763
  15.9547643  46.6006693  29.0123803  15.1266273  46.6699783  28.5373933
  16.5498123  47.1861003  28.5439633  13.4763093  47.2091473  22.5412863
  12.8575513  46.8711023  21.8939163  13.4587543  46.5651233  23.2492053
  12.9189653  43.3876013  29.9578673  12.5060833  44.2129723  30.2118663
  12.1865603  42.8021053  29.7655033   5.0522443  46.1735913  24.8197343
   4.6479443  45.4613163  24.3243243   5.1385563  45.8289153  25.7085383
   5.5204143  49.8603473  26.9836553   5.2232433  49.2548943  26.3044333
   6.4703963  49.8980783  26.8725913   3.7651063  42.9479123  28.5996383
   4.3165653  43.0574463  27.8249633   4.2794573  43.3216723  29.3151613
  13.6089753  53.4335343  30.6459653  13.1320313  54.2407533  30.4532263
  12.9251543  52.7813673  30.7985863   4.6122573  49.5985163  33.6344353
   3.7151103  49.8225133  33.8817753   4.6375443  49.7220103  32.6855753
  11.6527793  46.4478283  19.5485613  12.0921073  45.6100713  19.4023433
  12.3656213  47.0807683  19.6349753   3.4393793  46.4698483  32.2101723
   3.3001563  47.3421283  32.5789123   2.5575153  46.1271293  32.0649663
   9.7623173  51.3874353  23.5166853  10.2019083  52.1298683  23.1022243
   9.7010063  51.6300923  24.4405813   5.2374143  52.4120183  34.4186873
   5.2089573  52.8163133  33.5515303   5.0739113  51.4830543  34.2558473
  15.2344933  37.7021093  17.8626653  14.9217593  37.7947923  18.7625723
  15.9957403  38.2802123  17.8124083  17.1888963  53.1947283  35.7151043
  17.6648683  53.6730173  36.3940123  17.8096123  53.1264773  34.9896543
  16.5922213  50.3860133  32.8751053  16.7185273  50.1472013  31.9568233
  16.6343593  49.5544673  33.3473133  10.4538953  54.0888133  31.4445863
  10.9683623  53.9996143  32.2468293   9.6108033  54.4347833  31.7373773
  12.4293353  54.3743473  20.8729863  12.2694493  54.0846413  21.7711693
  12.2640063  53.5983603  20.3375093   4.9081733  54.1542003  22.6501483
   4.7324213  53.2377543  22.4369283   4.0537473  54.5129293  22.8899283
  12.1319483  51.8831033  19.4327863  11.4384643  51.8808323  18.7730143
  12.8742343  51.4590353  19.0022033  11.6969413  53.5093743  23.5076353
  12.1526363  52.7283123  23.8214973  12.0361933  54.2200563  24.0517533
  16.4446223  42.4392593  33.8400793  15.8290493  42.9472263  33.3116253
  16.1242643  41.5390923  33.7826733   4.2190733  38.4115963  25.7027663
   3.7758883  39.1925503  25.3712183   4.7775723  38.7345853  26.4098603
   8.5060543  41.2784483  31.3062983   8.0439913  41.4867503  32.1182923
   8.1038653  40.4643833  31.0033653  13.5065053  42.4993433  32.4359643
  12.6558643  42.1999183  32.7568713  13.3466843  42.7435443  31.5243463
  10.6014763  43.9995183  34.5358433  10.9268173  43.1658933  34.1960663
  11.3895093  44.5223703  34.6836763   7.3349553  38.0326663  20.5833493
   6.7103733  38.0286533  21.3086803   7.2479673  37.1657623  20.1869463
   6.2566633  38.9563293  27.5617263   6.5538963  39.8626123  27.4809283
   6.8052193  38.4682073  26.9476833   4.0104953  43.5349533  23.4308913
   3.7845873  43.3186703  24.3355533   3.2297483  43.9677993  23.0854883
  11.2402713  43.5412903  22.0299563  10.6411603  44.2648703  21.8463183
  11.7882323  43.4789683  21.2476013   6.4504163  44.4335113  34.0969183
   6.3547763  43.4929843  33.9469583   7.2936143  44.6550183  33.7017253
   9.8467583  42.1776443  24.0602843  10.2397153  42.4948643  23.2471533
  10.2084433  41.2988323  24.1747363   8.1559753  40.9283753  35.3199703
   7.4658073  40.7355953  35.9545793   8.8992053  41.2118393  35.8524003
  10.4322723  44.7682193  28.1553623   9.7003843  45.2769003  28.5043723
  10.0347063  43.9512173  27.8542403   6.8700113  41.4436393  26.5606113
   6.8736173  41.0026343  25.7110653   7.7651233  41.7653723  26.6677933
   2.7202493  41.3262883  25.5200323   2.3802543  41.8038113  26.2767373
   1.9579813  40.8728003  25.1601423   6.9320263  42.4448473  19.5512873
   7.0533083  42.4034953  20.4998693   6.5468773  43.3072623  19.3959603
  10.8948633  40.2215873  27.5676563  10.9121373  40.6724523  28.4118413
  10.6464213  39.3221513  27.7810003   5.9441763  44.7549613  18.9496173
   5.3758663  44.3067863  18.3232083   6.6530763  45.1142393  18.4161323
  14.3219383  37.6348053  33.4062943  14.6465153  36.9037713  33.9320923
  14.3575893  37.3161693  32.5043933   7.1708083  45.5038173  28.3071523
   7.5378213  45.0296743  29.0532863   6.9813143  46.3779743  28.6479863
   4.9607453  44.5446813  30.6255733   4.6564523  45.4238793  30.8506093
   5.9153913  44.6046603  30.6613173   3.4889243  48.7507803  21.2222583
   2.7151503  48.2105423  21.0621303   4.2183873  48.2314413  20.8840343
  14.2477223  47.7473163  27.0148973  14.9676343  48.2428453  26.6245083
  14.0459043  47.0691053  26.3702843   9.7087163  39.1411123  21.1578363
   8.8951773  38.6424293  21.0823673   9.5149113  39.9809373  20.7414713
   9.6296023  47.8182223  32.9017973   9.5633333  46.8977893  32.6475563
   9.0001163  47.9157663  33.6162613  12.4235553  43.5130773  19.4540523
  13.3115173  43.8248003  19.2791863  12.3940643  42.6403023  19.0621103
   3.5326643  48.4188183  24.8601393   4.0505313  47.6156443  24.8058283
   3.0810663  48.3567323  25.7018223   8.4196143  49.6854463  20.1328693
   8.7611843  50.4296693  19.6372013   7.5908853  49.9985583  20.4953523
   4.2184303  45.8433793  34.6566643   3.9184443  45.9890973  33.7594463
   4.9895543  45.2839083  34.5640033   9.5612753  50.6402793  32.6521773
   9.5757293  49.7083753  32.4340683   8.8537853  50.7262553  33.2911543
  14.6949823  44.8242613  18.9220383  14.6113543  45.2556833  18.0716823
  15.4144013  45.2840963  19.3547203  15.7723963  47.2810133  31.9990353
  15.0472153  47.8738913  31.8019743  16.2999423  47.2733673  31.2003723
  15.7237073  51.6784873  21.6502513  15.0813233  51.0240493  21.9246233
  15.3367733  52.0839963  20.8743183  11.3023553  49.0070303  25.4974203
  11.6547373  48.4098433  24.8375573  10.4185883  48.6814533  25.6682453
   7.3886833  49.7667993  22.9044613   8.0757963  50.3137203  23.2852203
   6.6019253  50.3108723  22.9394223   6.6914043  46.7714023  22.5169973
   7.1476823  47.5819273  22.7430163   6.3402253  46.4537163  23.3488463
   8.9946653  52.2820363  29.7462273   9.6388873  52.4879743  30.4235693
   9.3576093  51.5208763  29.2933123   2.5925823  37.1151673  22.9892493
   2.4640453  37.1069573  23.9377413   1.7687843  37.4534763  22.6383503
  10.2678733  50.2852713  28.4639723  10.9100963  49.5845873  28.5771893
  10.7928083  51.0651153  28.2836613  14.1134453  50.5701333  18.1878863
  13.8872033  49.8531773  18.7803503  13.7230653  50.3213773  17.3500613
  12.0416353  51.0847613  31.6675783  12.3772593  51.6714303  32.3453703
  11.1216693  50.9540323  31.8973573  13.6950703  48.4873273  19.8493023
  13.4072403  48.9485963  20.6370903  14.4902873  48.0271043  20.1177243
   7.8704933  51.1338943  34.8363843   7.5501803  50.4148183  35.3809533
   7.1963293  51.8094013  34.9099903   5.9119103  51.9799393  19.7796993
   5.9029203  52.7129083  19.1641503   4.9917463  51.7330973  19.8723953
  11.0858533  41.3665103  30.2000643  11.4539353  40.5460313  30.5280213
  10.2256733  41.4266993  30.6156293  14.4520563  40.3222043  21.0088203
  13.8233723  40.4267713  20.2946433  13.9572483  40.5418823  21.7982083
   8.8978703  52.0427633  18.4422183   8.9990683  51.8391623  17.5124163
   7.9980443  51.7885913  18.6469963   6.4204593  42.6007993  22.4246083
   5.7120743  43.0694333  22.8659693   6.7049073  41.9430003  23.0591273
   8.0460523  44.0204693  30.4238613   8.5445773  44.4950513  31.0890463
   8.1883473  43.0968213  30.6308643  10.4520023  39.3258653  23.8641873
  10.3287803  39.3444783  22.9151383  11.4004583  39.3737593  23.9840273
   7.5396813  54.5613953  23.1369853   7.7938313  54.5235343  22.2149223
   6.5909293  54.4347283  23.1298103   4.6239613  40.9093073  19.7996793
   5.4730143  41.3463223  19.7336983   4.2570883  41.2213333  20.6268853
  15.2527383  40.2372653  31.2667003  14.7500983  40.9778053  31.6060813
  16.0684043  40.6256653  30.9503793  13.5449393  45.4805833  24.7128363
  12.6039533  45.4956063  24.8876053  13.8593463  44.6941793  25.1588663
   3.5231033  47.1625433  18.2732323   4.2894303  47.0506793  18.8357753
   3.6005723  46.4663403  17.6209093   2.2177793  44.5950503  18.9565213
   2.2981383  43.6478013  19.0682613   3.1097543  44.9257383  19.0625873
  15.5474973  52.6514683  26.3882623  15.6722393  53.4745853  26.8606433
  16.4140533  52.4405413  26.0406773   3.0192503  54.7445893  26.0599753
   3.7554983  54.1961353  26.3308323   3.4033423  55.6101903  25.9205743
   2.0250783  53.9291963  35.2485333   2.8263513  54.2504013  35.6620733
   1.5102603  53.5687543  35.9705243   6.1294813  53.9176203  17.8825323
   6.9223423  54.2065033  17.4307113   5.6099163  53.4868373  17.2037803
  10.8615413  50.0371833  35.1960743  10.2553573  50.0603433  34.4556493
  10.5569523  49.3054873  35.7327993  12.2915783  53.7652123  33.8070153
  13.2437533  53.6810143  33.7570393  12.1444003  54.4293833  34.4803943
  15.1824983  53.1446333  19.3062063  14.8966493  52.7311473  18.4916243
  14.9844533  54.0734043  19.1862583   6.6472213  49.1379613  17.7467673
   6.5422853  48.5231963  18.4729053   6.4796433  48.6145503  16.9630683
   6.7986533  47.8236413  33.7256903   6.0332203  48.3921413  33.6411573
   6.9802493  47.5312623  32.8325133   9.8874943  48.1999643  18.3509663
   9.3385043  48.6468943  18.9952403  10.5094203  47.6948893  18.8747333
  13.9409883  49.5541743  34.2831923  14.6819353  49.8917503  33.7799383
  13.1782563  49.7233803  33.7301693   1.7771673  44.5595013  35.0871453
   1.8177013  44.2608883  35.9956683   2.6317173  44.9602623  34.9278973
   5.5550063  47.1590563  20.2474963   5.9766483  46.9930433  21.0906353
   5.6800903  46.3490793  19.7530103   3.7177483  43.1387113  33.0545943
   3.1873943  42.6478063  32.4269283   4.3865553  43.5671313  32.5203873
   8.0677703  46.1828173  17.4952063   8.5883363  45.4677193  17.1293213
   8.7146103  46.8214043  17.7952573  12.6155543  47.6056573  32.8187133
  13.0296563  47.7601653  33.6677553  11.6806543  47.7311793  32.9812913
  13.0877713  44.9452733  34.8226283  13.6698483  44.1905053  34.7346763
  13.2639483  45.4760173  34.0457763   4.2049783  40.1049483  33.1343233
   4.1106653  39.4870233  32.4094103   3.6247173  40.8315773  32.9073143
   6.9711223  38.6622723  30.1670623   6.5228523  38.6846983  29.3216173
   6.3376423  38.2641743  30.7640923   7.3770773  47.5577053  30.7883063
   7.7958883  48.4009783  30.6159303   6.4579403  47.6949093  30.5589843
   9.7134673  45.2893233  32.1720903   9.8330883  44.6934373  32.9115743
  10.5728673  45.3262923  31.7522203  12.0522573  45.8430423  30.7483413
  11.5257793  46.3673043  30.1448553  12.3953913  46.4757813  31.3793143
   4.4508963  43.2323793  17.1933123   4.2498023  42.3691153  17.5546463
   4.2801013  43.1457153  16.2554723   5.2278193  53.8630063  31.9040793
   4.6899283  54.5876123  31.5849493   5.4812153  53.3860403  31.1138133
   6.4803443  41.8314583  33.4296723   7.0703133  41.5230433  34.1174543
   5.6623683  41.3594333  33.5856623  11.2996873  41.4480393  33.6629743
  10.6112393  40.7861933  33.5979733  12.0202893  41.0018663  34.1078203
  11.9297273  38.0432023  19.7220003  12.2099563  37.1999923  20.0779423
  11.1563003  38.2755133  20.2358753   3.2491763  40.3324413  17.1811003
   3.5517663  40.3391843  16.2730153   3.9886353  39.9822273  17.6778663
   8.0840403  55.0981273  32.1627443   8.0099103  56.0016413  32.4699813
   7.1819243  54.7793173  32.1349513   6.4676693  39.2759033  18.1667203
   6.1198693  38.5983023  17.5869653   6.6689463  38.8148543  18.9810593
   8.6325733  54.2639783  19.7853803   9.5276523  54.6024753  19.8072563
   8.6643363  53.5419193  19.1578083   2.2721893  49.6366833  18.0140803
   2.7096763  50.1796503  18.6698383   2.7569623  48.8113783  18.0237143
   4.0829613  50.7564873  23.1263033   3.7825153  50.6329843  24.0266943
   3.9767103  49.8973463  22.7178763  15.6120083  52.7943453  32.4920003
  15.0122073  52.8536013  31.7483923  15.7413983  51.8548433  32.6216853
  16.8521533  50.5361273  17.8289713  16.0214493  50.6037923  18.2996943
  17.0293363  51.4265393  17.5256573  16.3077993  47.2808753  20.3323913
  17.0696903  47.8505403  20.4383603  16.3232363  46.7135953  21.1032223
  17.3137963  48.1358853  25.1765843  17.6846793  47.3526173  24.7701813
  17.9539893  48.8247953  24.9983143  14.2971723  49.5195433  30.5896163
  13.4831563  49.9492593  30.8521953  14.7045923  50.1313843  29.9765213
  16.3597163  47.5743123  17.4896433  16.6346003  48.4822003  17.3615653
  16.1707903  47.5105653  18.4258423  12.7572773  40.5987973  18.7850063
  13.1757653  40.4118953  17.9446723  12.4508833  39.7467023  19.0952993
  16.2562503  45.5112113  22.4825863  15.8806103  44.7440043  22.0507153
  15.5265623  45.8934813  22.9700793  15.6462123  44.6583633  32.1165383
  15.4148213  44.4296383  31.2163333  15.9066673  45.5783183  32.0710273
  14.0850193  39.8840063  34.8945083  14.9620373  39.8923463  35.2779083
  14.0971033  39.1470903  34.2837433  15.5313463  43.7369603  25.7833103
  16.0550943  43.2432253  25.1523273  16.1172883  43.8719963  26.5280673
  15.7103183  43.8209473  29.3052653  14.7605893  43.7873013  29.4197643
  15.8916193  44.7309583  29.0702423  15.0213433  42.9942953  21.7225513
  15.5172553  42.7613823  22.5074393  14.8229503  42.1554793  21.3063153
  16.4500593  41.6303903  24.2563193  16.3399873  41.4759943  25.1945463
  17.2108183  41.1024843  24.0138603  14.7966313  37.5698033  30.7146193
  15.4338533  38.1832173  31.0805383  14.9441203  37.6058693  29.7695423
  17.3390863  39.4611823  17.4969333  18.2640173  39.3293003  17.2887623
  17.3166653  39.5404643  18.4505783  17.4129353  40.2322483  20.1226043
  16.6180853  40.1667603  20.6518953  17.6172633  41.1673123  20.1111393
  14.3547773  54.2714033  24.1164433  14.9506843  53.9498603  23.4398853
  14.6125923  53.7985853  24.9077703   2.2610343  50.7031943  34.2655063
   2.2179973  50.3324853  35.1469523   2.3921353  51.6409513  34.4056883
   5.9616373  52.2591533  29.8664783   5.7207733  52.5266093  28.9795303
   6.9019013  52.4297263  29.9215643   8.1670793  38.7224223  33.6221293
   8.1059683  39.3146053  34.3716703   9.1071173  38.6150183  33.4771553
  10.8045353  38.3794283  33.2613583  11.4185763  38.6973573  32.5994663
  11.3494913  37.8942873  33.8809443  17.2220533  54.2785913  30.6675423
  16.7278813  54.6754783  29.9502553  16.6133823  53.6535123  31.0612703
   2.0998373  53.6494193  31.3852843   1.5058693  53.5178893  32.1242883
   2.0922213  52.8132333  30.9194943  11.5453393  36.9426423  29.5882873
  10.6713233  37.2761533  29.3855803  11.4364143  36.4699603  30.4134743
  12.4525373  39.1497293  30.9724593  12.1238733  38.3349053  30.5926323
  13.4007673  39.1067103  30.8490283  14.9059983  54.9209333  27.9462163
  14.4462953  55.6725143  27.5720183  14.2772443  54.2015803  27.8876963
   5.3355703  53.2297573  27.1210293   5.8520723  52.6184933  26.5958553
   5.9853083  53.7326353  27.6121303   8.0751203  54.1206063  27.9479273
   8.3629013  53.8660363  27.0712283   8.5874423  53.5683423  28.5384843
   9.2928213  37.8596263  28.5275783   8.5100003  38.3341763  28.8072543
   8.9991143  36.9551093  28.4188963  13.8449283  38.5619363  26.5724873
  14.2857373  38.5064463  25.7246473  13.5756873  39.4777373  26.6435053
  15.7087853  38.1934603  24.5833693  15.6476253  37.2495823  24.4364713
  16.4879883  38.3014693  25.1287153   7.1782433  40.2783013  24.0391813
   6.3656943  39.9039903  23.6987693   7.6824073  39.5228093  24.3413003
  11.6807413  36.9425463  25.2774883  12.2836783  37.5145673  25.7523403
  10.9400403  37.5064903  25.0548783  14.8242013  37.3447023  20.5515163
  15.0192643  38.2430473  20.8182593  14.0371883  37.1134103  21.0448113
   3.0093773  38.6907793  19.5891473   3.5386533  37.9037593  19.4599423
   3.6422093  39.3698983  19.8227003   5.2031613  38.4282933  22.6436863
   4.5734353  37.7270243  22.8106993   4.6636753  39.1887063  22.4270023
   8.1423563  55.0422163  35.3147473   9.0690873  54.8066433  35.3583433
   8.1273993  55.8694163  34.8333503  16.3768623  54.5847733  22.3121723
  16.5520813  53.8985473  21.6682643  15.6790193  55.1094783  21.9198393
   5.3287173  37.7066913  35.0789353   5.0471443  38.2100513  34.3150173
   5.7106873  36.9088663  34.7131483   4.2196273  54.9742573  19.8657033
   4.9515093  54.6901853  19.3180923   4.4789943  54.7355853  20.7556413
   3.3811063  51.0907303  19.8703363   2.7519943  51.5592403  20.4189193
   3.4958893  50.2456523  20.3049553  11.9302633  37.1220493  35.6569823
  11.8168083  37.4415103  36.5521343  12.7472373  37.5233003  35.3607103
  14.7101123  54.2692023  35.1388513  15.5026443  53.7741253  34.9314473
  15.0034273  54.9482163  35.7464123  10.8360783  45.1412963   6.0204563
  10.7554833  44.2267573   5.7496273  10.4225203  45.6380033   5.3144273
   8.9678823  46.9191983   7.9013833   8.1920923  46.4392423   8.1912403
   9.6191753  46.2397633   7.7269993   2.9844653  47.2311793   8.7789593
   2.1529533  46.9760503   9.1786103   3.5925633  47.3022563   9.5147513
  12.9886253  51.3252173   6.6812963  12.5267783  50.5539413   7.0100133
  13.8011803  51.3518243   7.1865413   2.9645913  51.2651883   8.9747613
   3.2673953  50.3749623   8.7957833   3.7089503  51.8222103   8.7469863
   9.2149563  53.6110183   6.3016953   8.5961003  54.0667683   5.7311393
  10.0701343  53.7661643   5.9006653   8.4087813  49.5949173   7.9083993
   8.3396093  48.6539113   7.7473123   9.1707673  49.6850583   8.4806563
   9.4392983  42.4019553   8.1352923   9.8157803  41.5291433   8.0226593
   9.3412493  42.7378253   7.2443363   3.5697993  40.7745183   3.5970363
   3.6764743  41.6748913   3.9039123   2.6590353  40.7263153   3.3065013
  13.2217103  39.8969993   5.0681263  14.0426723  39.4066563   5.1106743
  13.2551183  40.4867653   5.8213103   5.4105723  43.7431553   7.9295543
   5.9183943  44.2412523   8.5700563   5.9418963  42.9666753   7.7534903
  17.5116653  41.9136743  11.6324893  16.8068823  42.3018453  11.1140003
  17.7774573  42.6087033  12.2345823   3.6941823  38.3830113  12.1958963
   3.6960263  38.9002503  11.3904863   2.8646133  37.9060293  12.1728893
  10.0812913  48.4949423   3.6948863   9.4630183  48.9598873   3.1311583
  10.5936163  49.1876903   4.1118373   4.9444673  48.0225293  10.3732463
   4.6114053  48.6494213  11.0153533   5.1211353  48.5487173   9.5934133
  13.4578583  41.8370373   7.8408803  12.7534153  42.1255263   8.4211913
  13.8190743  42.6470483   7.4808363   3.3757153  40.0940073  10.2029413
   3.7173963  40.9382123   9.9083283   2.4372963  40.2423813  10.3194753
   4.1563773  49.9906093  12.1881643   4.7737773  50.6657173  11.9066093
   3.2956893  50.3994073  12.0969143  15.0741363  51.4545503  10.1036283
  14.3904883  52.1244613  10.0952953  15.6135653  51.6526153   9.3381143
  16.5265503  41.2825163   8.2318013  15.5790413  41.3164143   8.3633443
  16.8515493  42.0964113   8.6167373   7.0585043  37.5822343   6.5274003
   7.3660023  37.0269233   5.8109503   6.1285743  37.7166803   6.3446993
  12.6100103  53.2989633   8.8181463  12.6227263  52.8951923   7.9503723
  12.0575323  54.0736923   8.7142893  13.9045523  50.0205853   3.9071633
  13.7941853  49.0780183   4.0321053  13.9013773  50.3821493   4.7934393
  12.0085543  48.2019473  10.1464073  12.4254333  47.9879583   9.3117533
  12.7325363  48.4592263  10.7172693   9.4465803  45.6471173   3.2634123
   8.5195083  45.5808553   3.4922593   9.5990623  46.5851303   3.1489363
  15.9547643  46.6006693  10.2380313  15.1266273  46.6699783   9.7630443
  16.5498123  47.1861003   9.7696143  13.4763093  47.2091473   3.7669373
  12.8575513  46.8711023   3.1195673  13.4587543  46.5651233   4.4748563
  12.9189653  43.3876013  11.1835183  12.5060833  44.2129723  11.4375173
  12.1865603  42.8021053  10.9911543   5.0522443  46.1735913   6.0453853
   4.6479443  45.4613163   5.5499753   5.1385563  45.8289153   6.9341893
   5.5204143  49.8603473   8.2093063   5.2232433  49.2548943   7.5300843
   6.4703963  49.8980783   8.0982423   3.7651063  42.9479123   9.8252893
   4.3165653  43.0574463   9.0506143   4.2794573  43.3216723  10.5408123
  13.6089753  53.4335343  11.8716163  13.1320313  54.2407533  11.6788773
  12.9251543  52.7813673  12.0242373   4.6122573  49.5985163  14.8600863
   3.7151103  49.8225133  15.1074263   4.6375443  49.7220103  13.9112263
   3.4393793  46.4698483  13.4358233   3.3001563  47.3421283  13.8045633
   2.5575153  46.1271293  13.2906173   9.7623173  51.3874353   4.7423363
  10.2019083  52.1298683   4.3278753   9.7010063  51.6300923   5.6662323
   5.2374143  52.4120183  15.6443383   5.2089573  52.8163133  14.7771813
   5.0739113  51.4830543  15.4814983  17.1888963  53.1947283  16.9407553
  17.6648683  53.6730173  17.6196633  17.8096123  53.1264773  16.2153053
  16.5922213  50.3860133  14.1007563  16.7185273  50.1472013  13.1824743
  16.6343593  49.5544673  14.5729643  10.4538953  54.0888133  12.6702373
  10.9683623  53.9996143  13.4724803   9.6108033  54.4347833  12.9630283
   4.9081733  54.1542003   3.8757993   4.7324213  53.2377543   3.6625793
   4.0537473  54.5129293   4.1155793  11.6969413  53.5093743   4.7332863
  12.1526363  52.7283123   5.0471483  12.0361933  54.2200563   5.2774043
  16.4446223  42.4392593  15.0657303  15.8290493  42.9472263  14.5372763
  16.1242643  41.5390923  15.0083243   4.2190733  38.4115963   6.9284173
   3.7758883  39.1925503   6.5968693   4.7775723  38.7345853   7.6355113
   8.5060543  41.2784483  12.5319493   8.0439913  41.4867503  13.3439433
   8.1038653  40.4643833  12.2290163  13.5065053  42.4993433  13.6616153
  12.6558643  42.1999183  13.9825223  13.3466843  42.7435443  12.7499973
  10.6014763  43.9995183  15.7614943  10.9268173  43.1658933  15.4217173
  11.3895093  44.5223703  15.9093273   6.2566633  38.9563293   8.7873773
   6.5538963  39.8626123   8.7065793   6.8052193  38.4682073   8.1733343
   4.0104953  43.5349533   4.6565423   3.7845873  43.3186703   5.5612043
   3.2297483  43.9677993   4.3111393  11.2402713  43.5412903   3.2556073
  10.6411603  44.2648703   3.0719693  11.7882323  43.4789683   2.4732523
   6.4504163  44.4335113  15.3225693   6.3547763  43.4929843  15.1726093
   7.2936143  44.6550183  14.9273763   9.8467583  42.1776443   5.2859353
  10.2397153  42.4948643   4.4728043  10.2084433  41.2988323   5.4003873
   8.1559753  40.9283753  16.5456213   7.4658073  40.7355953  17.1802303
   8.8992053  41.2118393  17.0780513  10.4322723  44.7682193   9.3810133
   9.7003843  45.2769003   9.7300233  10.0347063  43.9512173   9.0798913
   6.8700113  41.4436393   7.7862623   6.8736173  41.0026343   6.9367163
   7.7651233  41.7653723   7.8934443   2.7202493  41.3262883   6.7456833
   2.3802543  41.8038113   7.5023883   1.9579813  40.8728003   6.3857933
  10.8948633  40.2215873   8.7933073  10.9121373  40.6724523   9.6374923
  10.6464213  39.3221513   9.0066513  14.3219383  37.6348053  14.6319453
  14.6465153  36.9037713  15.1577433  14.3575893  37.3161693  13.7300443
   7.1708083  45.5038173   9.5328033   7.5378213  45.0296743  10.2789373
   6.9813143  46.3779743   9.8736373   4.9607453  44.5446813  11.8512243
   4.6564523  45.4238793  12.0762603   5.9153913  44.6046603  11.8869683
   3.4889243  48.7507803   2.4479093   2.7151503  48.2105423   2.2877813
   4.2183873  48.2314413   2.1096853  14.2477223  47.7473163   8.2405483
  14.9676343  48.2428453   7.8501593  14.0459043  47.0691053   7.5959353
   9.7087163  39.1411123   2.3834873   8.8951773  38.6424293   2.3080183
   9.5149113  39.9809373   1.9671223   9.6296023  47.8182223  14.1274483
   9.5633333  46.8977893  13.8732073   9.0001163  47.9157663  14.8419123
   3.5326643  48.4188183   6.0857903   4.0505313  47.6156443   6.0314793
   3.0810663  48.3567323   6.9274733   4.2184303  45.8433793  15.8823153
   3.9184443  45.9890973  14.9850973   4.9895543  45.2839083  15.7896543
   9.5612753  50.6402793  13.8778283   9.5757293  49.7083753  13.6597193
   8.8537853  50.7262553  14.5168053  15.7723963  47.2810133  13.2246863
  15.0472153  47.8738913  13.0276253  16.2999423  47.2733673  12.4260233
  15.7237073  51.6784873   2.8759023  15.0813233  51.0240493   3.1502743
  15.3367733  52.0839963   2.0999693  11.3023553  49.0070303   6.7230713
  11.6547373  48.4098433   6.0632083  10.4185883  48.6814533   6.8938963
   7.3886833  49.7667993   4.1301123   8.0757963  50.3137203   4.5108713
   6.6019253  50.3108723   4.1650733   6.6914043  46.7714023   3.7426483
   7.1476823  47.5819273   3.9686673   6.3402253  46.4537163   4.5744973
   8.9946653  52.2820363  10.9718783   9.6388873  52.4879743  11.6492203
   9.3576093  51.5208763  10.5189633   2.5925823  37.1151673   4.2149003
   2.4640453  37.1069573   5.1633923   1.7687843  37.4534763   3.8640013
  10.2678733  50.2852713   9.6896233  10.9100963  49.5845873   9.8028403
  10.7928083  51.0651153   9.5093123  12.0416353  51.0847613  12.8932293
  12.3772593  51.6714303  13.5710213  11.1216693  50.9540323  13.1230083
   7.8704933  51.1338943  16.0620353   7.5501803  50.4148183  16.6066043
   7.1963293  51.8094013  16.1356413  11.0858533  41.3665103  11.4257153
  11.4539353  40.5460313  11.7536723  10.2256733  41.4266993  11.8412803
   6.4204593  42.6007993   3.6502593   5.7120743  43.0694333   4.0916203
   6.7049073  41.9430003   4.2847783   8.0460523  44.0204693  11.6495123
   8.5445773  44.4950513  12.3146973   8.1883473  43.0968213  11.8565153
  10.4520023  39.3258653   5.0898383  10.3287803  39.3444783   4.1407893
  11.4004583  39.3737593   5.2096783   7.5396813  54.5613953   4.3626363
   7.7938313  54.5235343   3.4405733   6.5909293  54.4347283   4.3554613
  15.2527383  40.2372653  12.4923513  14.7500983  40.9778053  12.8317323
  16.0684043  40.6256653  12.1760303  13.5449393  45.4805833   5.9384873
  12.6039533  45.4956063   6.1132563  13.8593463  44.6941793   6.3845173
  15.5474973  52.6514683   7.6139133  15.6722393  53.4745853   8.0862943
  16.4140533  52.4405413   7.2663283   3.0192503  54.7445893   7.2856263
   3.7554983  54.1961353   7.5564833   3.4033423  55.6101903   7.1462253
   2.0250783  53.9291963  16.4741843   2.8263513  54.2504013  16.8877243
   1.5102603  53.5687543  17.1961753  10.8615413  50.0371833  16.4217253
  10.2553573  50.0603433  15.6813003  10.5569523  49.3054873  16.9584503
  12.2915783  53.7652123  15.0326663  13.2437533  53.6810143  14.9826903
  12.1444003  54.4293833  15.7060453   6.7986533  47.8236413  14.9513413
   6.0332203  48.3921413  14.8668083   6.9802493  47.5312623  14.0581643
  13.9409883  49.5541743  15.5088433  14.6819353  49.8917503  15.0055893
  13.1782563  49.7233803  14.9558203   1.7771673  44.5595013  16.3127963
   1.8177013  44.2608883  17.2213193   2.6317173  44.9602623  16.1535483
   3.7177483  43.1387113  14.2802453   3.1873943  42.6478063  13.6525793
   4.3865553  43.5671313  13.7460383  12.6155543  47.6056573  14.0443643
  13.0296563  47.7601653  14.8934063  11.6806543  47.7311793  14.2069423
  13.0877713  44.9452733  16.0482793  13.6698483  44.1905053  15.9603273
  13.2639483  45.4760173  15.2714273   4.2049783  40.1049483  14.3599743
   4.1106653  39.4870233  13.6350613   3.6247173  40.8315773  14.1329653
   6.9711223  38.6622723  11.3927133   6.5228523  38.6846983  10.5472683
   6.3376423  38.2641743  11.9897433   7.3770773  47.5577053  12.0139573
   7.7958883  48.4009783  11.8415813   6.4579403  47.6949093  11.7846353
   9.7134673  45.2893233  13.3977413   9.8330883  44.6934373  14.1372253
  10.5728673  45.3262923  12.9778713  12.0522573  45.8430423  11.9739923
  11.5257793  46.3673043  11.3705063  12.3953913  46.4757813  12.6049653
   5.2278193  53.8630063  13.1297303   4.6899283  54.5876123  12.8106003
   5.4812153  53.3860403  12.3394643   6.4803443  41.8314583  14.6553233
   7.0703133  41.5230433  15.3431053   5.6623683  41.3594333  14.8113133
  11.2996873  41.4480393  14.8886253  10.6112393  40.7861933  14.8236243
  12.0202893  41.0018663  15.3334713   8.0840403  55.0981273  13.3883953
   8.0099103  56.0016413  13.6956323   7.1819243  54.7793173  13.3606023
   4.0829613  50.7564873   4.3519543   3.7825153  50.6329843   5.2523453
   3.9767103  49.8973463   3.9435273  15.6120083  52.7943453  13.7176513
  15.0122073  52.8536013  12.9740433  15.7413983  51.8548433  13.8473363
  17.3137963  48.1358853   6.4022353  17.6846793  47.3526173   5.9958323
  17.9539893  48.8247953   6.2239653  14.2971723  49.5195433  11.8152673
  13.4831563  49.9492593  12.0778463  14.7045923  50.1313843  11.2021723
  16.2562503  45.5112113   3.7082373  15.8806103  44.7440043   3.2763663
  15.5265623  45.8934813   4.1957303  15.6462123  44.6583633  13.3421893
  15.4148213  44.4296383  12.4419843  15.9066673  45.5783183  13.2966783
  14.0850193  39.8840063  16.1201593  14.9620373  39.8923463  16.5035593
  14.0971033  39.1470903  15.5093943  15.5313463  43.7369603   7.0089613
  16.0550943  43.2432253   6.3779783  16.1172883  43.8719963   7.7537183
  15.7103183  43.8209473  10.5309163  14.7605893  43.7873013  10.6454153
  15.8916193  44.7309583  10.2958933  15.0213433  42.9942953   2.9482023
  15.5172553  42.7613823   3.7330903  14.8229503  42.1554793   2.5319663
  16.4500593  41.6303903   5.4819703  16.3399873  41.4759943   6.4201973
  17.2108183  41.1024843   5.2395113  14.7966313  37.5698033  11.9402703
  15.4338533  38.1832173  12.3061893  14.9441203  37.6058693  10.9951933
  14.3547773  54.2714033   5.3420943  14.9506843  53.9498603   4.6655363
  14.6125923  53.7985853   6.1334213   2.2610343  50.7031943  15.4911573
   2.2179973  50.3324853  16.3726033   2.3921353  51.6409513  15.6313393
   5.9616373  52.2591533  11.0921293   5.7207733  52.5266093  10.2051813
   6.9019013  52.4297263  11.1472153   8.1670793  38.7224223  14.8477803
   8.1059683  39.3146053  15.5973213   9.1071173  38.6150183  14.7028063
  10.8045353  38.3794283  14.4870093  11.4185763  38.6973573  13.8251173
  11.3494913  37.8942873  15.1065953  17.2220533  54.2785913  11.8931933
  16.7278813  54.6754783  11.1759063  16.6133823  53.6535123  12.2869213
   2.0998373  53.6494193  12.6109353   1.5058693  53.5178893  13.3499393
   2.0922213  52.8132333  12.1451453  11.5453393  36.9426423  10.8139383
  10.6713233  37.2761533  10.6112313  11.4364143  36.4699603  11.6391253
  12.4525373  39.1497293  12.1981103  12.1238733  38.3349053  11.8182833
  13.4007673  39.1067103  12.0746793  14.9059983  54.9209333   9.1718673
  14.4462953  55.6725143   8.7976693  14.2772443  54.2015803   9.1133473
   5.3355703  53.2297573   8.3466803   5.8520723  52.6184933   7.8215063
   5.9853083  53.7326353   8.8377813   8.0751203  54.1206063   9.1735783
   8.3629013  53.8660363   8.2968793   8.5874423  53.5683423   9.7641353
   9.2928213  37.8596263   9.7532293   8.5100003  38.3341763  10.0329053
   8.9991143  36.9551093   9.6445473  13.8449283  38.5619363   7.7981383
  14.2857373  38.5064463   6.9502983  13.5756873  39.4777373   7.8691563
  15.7087853  38.1934603   5.8090203  15.6476253  37.2495823   5.6621223
  16.4879883  38.3014693   6.3543663   7.1782433  40.2783013   5.2648323
   6.3656943  39.9039903   4.9244203   7.6824073  39.5228093   5.5669513
  11.6807413  36.9425463   6.5031393  12.2836783  37.5145673   6.9779913
  10.9400403  37.5064903   6.2805293  14.8242013  37.3447023   1.7771673
  15.0192643  38.2430473   2.0439103  14.0371883  37.1134103   2.2704623
   5.2031613  38.4282933   3.8693373   4.5734353  37.7270243   4.0363503
   4.6636753  39.1887063   3.6526533   8.1423563  55.0422163  16.5403983
   9.0690873  54.8066433  16.5839943   8.1273993  55.8694163  16.0590013
  16.3768623  54.5847733   3.5378233  16.5520813  53.8985473   2.8939153
  15.6790193  55.1094783   3.1454903   5.3287173  37.7066913  16.3045863
   5.0471443  38.2100513  15.5406683   5.7106873  36.9088663  15.9387993
  11.9302633  37.1220493  16.8826333  11.8168083  37.4415103  17.7777853
  12.7472373  37.5233003  16.5863613  14.7101123  54.2692023  16.3645023
  15.5026443  53.7741253  16.1570983  15.0034273  54.9482163  16.9720633
  10.8360783  26.3669473  62.3435033  10.7554833  25.4524083  62.0726743
  10.4225203  26.8636543  61.6374743   8.9678823  28.1448493  64.2244303
   8.1920923  27.6648933  64.5142873   9.6191753  27.4654143  64.0500463
   2.9844653  28.4568303  65.1020063   2.1529533  28.2017013  65.5016573
   3.5925633  28.5279073  65.8377983  12.9886253  32.5508683  63.0043433
  12.5267783  31.7795923  63.3330603  13.8011803  32.5774753  63.5095883
   2.9645913  32.4908393  65.2978083   3.2673953  31.6006133  65.1188303
   3.7089503  33.0478613  65.0700333   9.2149563  34.8366693  62.6247423
   8.5961003  35.2924193  62.0541863  10.0701343  34.9918153  62.2237123
   8.4087813  30.8205683  64.2314463   8.3396093  29.8795623  64.0703593
   9.1707673  30.9107093  64.8037033   9.4392983  23.6276063  64.4583393
   9.8157803  22.7547943  64.3457063   9.3412493  23.9634763  63.5673833
   3.5697993  22.0001693  59.9200833   3.6764743  22.9005423  60.2269593
   2.6590353  21.9519663  59.6295483  13.2217103  21.1226503  61.3911733
  14.0426723  20.6323073  61.4337213  13.2551183  21.7124163  62.1443573
   5.4105723  24.9688063  64.2526013   5.9183943  25.4669033  64.8931033
   5.9418963  24.1923263  64.0765373  17.5116653  23.1393253  67.9555363
  16.8068823  23.5274963  67.4370473  17.7774573  23.8343543  68.5576293
   3.6941823  19.6086623  68.5189433   3.6960263  20.1259013  67.7135333
   2.8646133  19.1316803  68.4959363  10.0812913  29.7205933  60.0179333
   9.4630183  30.1855383  59.4542053  10.5936163  30.4133413  60.4348843
   4.9444673  29.2481803  66.6962933   4.6114053  29.8750723  67.3384003
   5.1211353  29.7743683  65.9164603  13.4578583  23.0626883  64.1639273
  12.7534153  23.3511773  64.7442383  13.8190743  23.8726993  63.8038833
   3.3757153  21.3196583  66.5259883   3.7173963  22.1638633  66.2313753
   2.4372963  21.4680323  66.6425223   4.1563773  31.2162603  68.5112113
   4.7737773  31.8913683  68.2296563   3.2956893  31.6250583  68.4199613
  15.0741363  32.6802013  66.4266753  14.3904883  33.3501123  66.4183423
  15.6135653  32.8782663  65.6611613  16.5265503  22.5081673  64.5548483
  15.5790413  22.5420653  64.6863913  16.8515493  23.3220623  64.9397843
   7.0585043  18.8078853  62.8504473   7.3660023  18.2525743  62.1339973
   6.1285743  18.9423313  62.6677463  12.6100103  34.5246143  65.1411933
  12.6227263  34.1208433  64.2734193  12.0575323  35.2993433  65.0373363
  13.9045523  31.2462363  60.2302103  13.7941853  30.3036693  60.3551523
  13.9013773  31.6078003  61.1164863  12.0085543  29.4275983  66.4694543
  12.4254333  29.2136093  65.6348003  12.7325363  29.6848773  67.0403163
   9.4465803  26.8727683  59.5864593   8.5195083  26.8065063  59.8153063
   9.5990623  27.8107813  59.4719833   9.4334883  23.1444683  56.5831753
   8.4938553  23.3058643  56.6684213   9.7518143  23.8630363  56.0367743
  15.9547643  27.8263203  66.5610783  15.1266273  27.8956293  66.0860913
  16.5498123  28.4117513  66.0926613  13.4763093  28.4347983  60.0899843
  12.8575513  28.0967533  59.4426143  13.4587543  27.7907743  60.7979033
  12.9189653  24.6132523  67.5065653  12.5060833  25.4386233  67.7605643
  12.1865603  24.0277563  67.3142013   5.0522443  27.3992423  62.3684323
   4.6479443  26.6869673  61.8730223   5.1385563  27.0545663  63.2572363
   5.5204143  31.0859983  64.5323533   5.2232433  30.4805453  63.8531313
   6.4703963  31.1237293  64.4212893   3.7651063  24.1735633  66.1483363
   4.3165653  24.2830973  65.3736613   4.2794573  24.5473233  66.8638593
  13.6089753  34.6591853  68.1946633  13.1320313  35.4664043  68.0019243
  12.9251543  34.0070183  68.3472843  11.6527793  27.6734793  57.0972593
  12.0921073  26.8357223  56.9510413  12.3656213  28.3064193  57.1836733
   9.7623173  32.6130863  61.0653833  10.2019083  33.3555193  60.6509223
   9.7010063  32.8557433  61.9892793  15.2344933  18.9277603  55.4113633
  14.9217593  19.0204433  56.3112703  15.9957403  19.5058633  55.3611063
  10.4538953  35.3144643  68.9932843  10.9683623  35.2252653  69.7955273
   9.6108033  35.6604343  69.2860753  12.4293353  35.5999983  58.4216843
  12.2694493  35.3102923  59.3198673  12.2640063  34.8240113  57.8862073
   4.9081733  35.3798513  60.1988463   4.7324213  34.4634053  59.9856263
   4.0537473  35.7385803  60.4386263  12.1319483  33.1087543  56.9814843
  11.4384643  33.1064833  56.3217123  12.8742343  32.6846863  56.5509013
  11.6969413  34.7350253  61.0563333  12.1526363  33.9539633  61.3701953
  12.0361933  35.4457073  61.6004513   4.2190733  19.6372473  63.2514643
   3.7758883  20.4182013  62.9199163   4.7775723  19.9602363  63.9585583
   8.5060543  22.5040993  68.8549963   8.0439913  22.7124013  69.6669903
   8.1038653  21.6900343  68.5520633   7.3349553  19.2583173  58.1320473
   6.7103733  19.2543043  58.8573783   7.2479673  18.3914133  57.7356443
   6.2566633  20.1819803  65.1104243   6.5538963  21.0882633  65.0296263
   6.8052193  19.6938583  64.4963813   4.0104953  24.7606043  60.9795893
   3.7845873  24.5443213  61.8842513   3.2297483  25.1934503  60.6341863
  11.2402713  24.7669413  59.5786543  10.6411603  25.4905213  59.3950163
  11.7882323  24.7046193  58.7962993   9.8467583  23.4032953  61.6089823
  10.2397153  23.7205153  60.7958513  10.2084433  22.5244833  61.7234343
  10.4322723  25.9938703  65.7040603   9.7003843  26.5025513  66.0530703
  10.0347063  25.1768683  65.4029383   6.8700113  22.6692903  64.1093093
   6.8736173  22.2282853  63.2597633   7.7651233  22.9910233  64.2164913
   2.7202493  22.5519393  63.0687303   2.3802543  23.0294623  63.8254353
   1.9579813  22.0984513  62.7088403   6.9320263  23.6704983  57.0999853
   7.0533083  23.6291463  58.0485673   6.5468773  24.5329133  56.9446583
  10.8948633  21.4472383  65.1163543  10.9121373  21.8981033  65.9605393
  10.6464213  20.5478023  65.3296983   5.9441763  25.9806123  56.4983153
   5.3758663  25.5324373  55.8719063   6.6530763  26.3398903  55.9648303
   7.1708083  26.7294683  65.8558503   7.5378213  26.2553253  66.6019843
   6.9813143  27.6036253  66.1966843   4.9607453  25.7703323  68.1742713
   4.6564523  26.6495303  68.3993073   5.9153913  25.8303113  68.2100153
   3.4889243  29.9764313  58.7709563   2.7151503  29.4361933  58.6108283
   4.2183873  29.4570923  58.4327323  14.2477223  28.9729673  64.5635953
  14.9676343  29.4684963  64.1732063  14.0459043  28.2947563  63.9189823
   9.7087163  20.3667633  58.7065343   8.8951773  19.8680803  58.6310653
   9.5149113  21.2065883  58.2901693  12.4235553  24.7387283  57.0027503
  13.3115173  25.0504513  56.8278843  12.3940643  23.8659533  56.6108083
   3.5326643  29.6444693  62.4088373   4.0505313  28.8412953  62.3545263
   3.0810663  29.5823833  63.2505203   8.4196143  30.9110973  57.6815673
   8.7611843  31.6553203  57.1858993   7.5908853  31.2242093  58.0440503
  14.6949823  26.0499123  56.4707363  14.6113543  26.4813343  55.6203803
  15.4144013  26.5097473  56.9034183  15.7723963  28.5066643  69.5477333
  15.0472153  29.0995423  69.3506723  16.2999423  28.4990183  68.7490703
  15.7237073  32.9041383  59.1989493  15.0813233  32.2497003  59.4733213
  15.3367733  33.3096473  58.4230163  11.3023553  30.2326813  63.0461183
  11.6547373  29.6354943  62.3862553  10.4185883  29.9071043  63.2169433
   7.3886833  30.9924503  60.4531593   8.0757963  31.5393713  60.8339183
   6.6019253  31.5365233  60.4881203   6.6914043  27.9970533  60.0656953
   7.1476823  28.8075783  60.2917143   6.3402253  27.6793673  60.8975443
   8.9946653  33.5076873  67.2949253   9.6388873  33.7136253  67.9722673
   9.3576093  32.7465273  66.8420103   2.5925823  18.3408183  60.5379473
   2.4640453  18.3326083  61.4864393   1.7687843  18.6791273  60.1870483
  10.2678733  31.5109223  66.0126703  10.9100963  30.8102383  66.1258873
  10.7928083  32.2907663  65.8323593  14.1134453  31.7957843  55.7365843
  13.8872033  31.0788283  56.3290483  13.7230653  31.5470283  54.8987593
  13.6950703  29.7129783  57.3980003  13.4072403  30.1742473  58.1857883
  14.4902873  29.2527553  57.6664223   5.9119103  33.2055903  57.3283973
   5.9029203  33.9385593  56.7128483   4.9917463  32.9587483  57.4210933
  11.0858533  22.5921613  67.7487623  11.4539353  21.7716823  68.0767193
  10.2256733  22.6523503  68.1643273  14.4520563  21.5478553  58.5575183
  13.8233723  21.6524223  57.8433413  13.9572483  21.7675333  59.3469063
   8.8978703  33.2684143  55.9909163   8.9990683  33.0648133  55.0611143
   7.9980443  33.0142423  56.1956943   6.4204593  23.8264503  59.9733063
   5.7120743  24.2950843  60.4146673   6.7049073  23.1686513  60.6078253
   8.0460523  25.2461203  67.9725593   8.5445773  25.7207023  68.6377443
   8.1883473  24.3224723  68.1795623  10.4520023  20.5515163  61.4128853
  10.3287803  20.5701293  60.4638363  11.4004583  20.5994103  61.5327253
   7.5396813  35.7870463  60.6856833   7.7938313  35.7491853  59.7636203
   6.5909293  35.6603793  60.6785083   4.6239613  22.1349583  57.3483773
   5.4730143  22.5719733  57.2823963   4.2570883  22.4469843  58.1755833
  15.2527383  21.4629163  68.8153983  14.7500983  22.2034563  69.1547793
  16.0684043  21.8513163  68.4990773  13.5449393  26.7062343  62.2615343
  12.6039533  26.7212573  62.4363033  13.8593463  25.9198303  62.7075643
   3.5231033  28.3881943  55.8219303   4.2894303  28.2763303  56.3844733
   3.6005723  27.6919913  55.1696073   2.2177793  25.8207013  56.5052193
   2.2981383  24.8734523  56.6169593   3.1097543  26.1513893  56.6112853
  15.5474973  33.8771193  63.9369603  15.6722393  34.7002363  64.4093413
  16.4140533  33.6661923  63.5893753   3.0192503  35.9702403  63.6086733
   3.7554983  35.4217863  63.8795303   3.4033423  36.8358413  63.4692723
   6.1294813  35.1432713  55.4312303   6.9223423  35.4321543  54.9794093
   5.6099163  34.7124883  54.7524783  15.1824983  34.3702843  56.8549043
  14.8966493  33.9567983  56.0403223  14.9844533  35.2990553  56.7349563
   6.6472213  30.3636123  55.2954653   6.5422853  29.7488473  56.0216033
   6.4796433  29.8402013  54.5117663   9.8874943  29.4256153  55.8996643
   9.3385043  29.8725453  56.5439383  10.5094203  28.9205403  56.4234313
   5.5550063  28.3847073  57.7961943   5.9766483  28.2186943  58.6393333
   5.6800903  27.5747303  57.3017083   8.0677703  27.4084683  55.0439043
   8.5883363  26.6933703  54.6780193   8.7146103  28.0470553  55.3439553
   6.9711223  19.8879233  67.7157603   6.5228523  19.9103493  66.8703153
   6.3376423  19.4898253  68.3127903   7.3770773  28.7833563  68.3370043
   7.7958883  29.6266293  68.1646283   6.4579403  28.9205603  68.1076823
  12.0522573  27.0686933  68.2970393  11.5257793  27.5929553  67.6935533
  12.3953913  27.7014323  68.9280123   4.4508963  24.4580303  54.7420103
   4.2498023  23.5947663  55.1033443   4.2801013  24.3713663  53.8041703
   5.2278193  35.0886573  69.4527773   4.6899283  35.8132633  69.1336473
   5.4812153  34.6116913  68.6625113  11.9297273  19.2688533  57.2706983
  12.2099563  18.4256433  57.6266403  11.1563003  19.5011643  57.7845733
   3.2491763  21.5580923  54.7297983   3.5517663  21.5648353  53.8217133
   3.9886353  21.2078783  55.2265643   6.4676693  20.5015543  55.7154183
   6.1198693  19.8239533  55.1356633   6.6689463  20.0405053  56.5297573
   8.6325733  35.4896293  57.3340783   9.5276523  35.8281263  57.3559543
   8.6643363  34.7675703  56.7065063   2.2721893  30.8623343  55.5627783
   2.7096763  31.4053013  56.2185363   2.7569623  30.0370293  55.5724123
   4.0829613  31.9821383  60.6750013   3.7825153  31.8586353  61.5753923
   3.9767103  31.1229973  60.2665743  16.8521533  31.7617783  55.3776693
  16.0214493  31.8294433  55.8483923  17.0293363  32.6521903  55.0743553
  16.3077993  28.5065263  57.8810893  17.0696903  29.0761913  57.9870583
  16.3232363  27.9392463  58.6519203  17.3137963  29.3615363  62.7252823
  17.6846793  28.5782683  62.3188793  17.9539893  30.0504463  62.5470123
  14.2971723  30.7451943  68.1383143  13.4831563  31.1749103  68.4008933
  14.7045923  31.3570353  67.5252193  16.3597163  28.7999633  55.0383413
  16.6346003  29.7078513  54.9102633  16.1707903  28.7362163  55.9745403
  12.7572773  21.8244483  56.3337043  13.1757653  21.6375463  55.4933703
  12.4508833  20.9723533  56.6439973  16.2562503  26.7368623  60.0312843
  15.8806103  25.9696553  59.5994133  15.5265623  27.1191323  60.5187773
  15.6462123  25.8840143  69.6652363  15.4148213  25.6552893  68.7650313
  15.9066673  26.8039693  69.6197253  15.5313463  24.9626113  63.3320083
  16.0550943  24.4688763  62.7010253  16.1172883  25.0976473  64.0767653
  15.7103183  25.0465983  66.8539633  14.7605893  25.0129523  66.9684623
  15.8916193  25.9566093  66.6189403  15.0213433  24.2199463  59.2712493
  15.5172553  23.9870333  60.0561373  14.8229503  23.3811303  58.8550133
  16.4500593  22.8560413  61.8050173  16.3399873  22.7016453  62.7432443
  17.2108183  22.3281353  61.5625583  14.7966313  18.7954543  68.2633173
  15.4338533  19.4088683  68.6292363  14.9441203  18.8315203  67.3182403
  17.3390863  20.6868333  55.0456313  18.2640173  20.5549513  54.8374603
  17.3166653  20.7661153  55.9992763  17.4129353  21.4578993  57.6713023
  16.6180853  21.3924113  58.2005933  17.6172633  22.3929633  57.6598373
  14.3547773  35.4970543  61.6651413  14.9506843  35.1755113  60.9885833
  14.6125923  35.0242363  62.4564683   5.9616373  33.4848043  67.4151763
   5.7207733  33.7522603  66.5282283   6.9019013  33.6553773  67.4702623
  17.2220533  35.5042423  68.2162403  16.7278813  35.9011293  67.4989533
  16.6133823  34.8791633  68.6099683   2.0998373  34.8750703  68.9339823
   1.5058693  34.7435403  69.6729863   2.0922213  34.0388843  68.4681923
  11.5453393  18.1682933  67.1369853  10.6713233  18.5018043  66.9342783
  11.4364143  17.6956113  67.9621723  12.4525373  20.3753803  68.5211573
  12.1238733  19.5605563  68.1413303  13.4007673  20.3323613  68.3977263
  14.9059983  36.1465843  65.4949143  14.4462953  36.8981653  65.1207163
  14.2772443  35.4272313  65.4363943   5.3355703  34.4554083  64.6697273
   5.8520723  33.8441443  64.1445533   5.9853083  34.9582863  65.1608283
   8.0751203  35.3462573  65.4966253   8.3629013  35.0916873  64.6199263
   8.5874423  34.7939933  66.0871823   9.2928213  19.0852773  66.0762763
   8.5100003  19.5598273  66.3559523   8.9991143  18.1807603  65.9675943
  13.8449283  19.7875873  64.1211853  14.2857373  19.7320973  63.2733453
  13.5756873  20.7033883  64.1922033  15.7087853  19.4191113  62.1320673
  15.6476253  18.4752333  61.9851693  16.4879883  19.5271203  62.6774133
   7.1782433  21.5039523  61.5878793   6.3656943  21.1296413  61.2474673
   7.6824073  20.7484603  61.8899983  11.6807413  18.1681973  62.8261863
  12.2836783  18.7402183  63.3010383  10.9400403  18.7321413  62.6035763
  14.8242013  18.5703533  58.1002143  15.0192643  19.4686983  58.3669573
  14.0371883  18.3390613  58.5935093   3.0093773  19.9164303  57.1378453
   3.5386533  19.1294103  57.0086403   3.6422093  20.5955493  57.3713983
   5.2031613  19.6539443  60.1923843   4.5734353  18.9526753  60.3593973
   4.6636753  20.4143573  59.9757003  16.3768623  35.8104243  59.8608703
  16.5520813  35.1241983  59.2169623  15.6790193  36.3351293  59.4685373
   4.2196273  36.1999083  57.4144013   4.9515093  35.9158363  56.8667903
   4.4789943  35.9612363  58.3043393   3.3811063  32.3163813  57.4190343
   2.7519943  32.7848913  57.9676173   3.4958893  31.4713033  57.8536533
  10.8360783  26.3669473  43.5691543  10.7554833  25.4524083  43.2983253
  10.4225203  26.8636543  42.8631253   8.9678823  28.1448493  45.4500813
   8.1920923  27.6648933  45.7399383   9.6191753  27.4654143  45.2756973
   2.9844653  28.4568303  46.3276573   2.1529533  28.2017013  46.7273083
   3.5925633  28.5279073  47.0634493  12.9886253  32.5508683  44.2299943
  12.5267783  31.7795923  44.5587113  13.8011803  32.5774753  44.7352393
   2.9645913  32.4908393  46.5234593   3.2673953  31.6006133  46.3444813
   3.7089503  33.0478613  46.2956843   9.2149563  34.8366693  43.8503933
   8.5961003  35.2924193  43.2798373  10.0701343  34.9918153  43.4493633
   8.4087813  30.8205683  45.4570973   8.3396093  29.8795623  45.2960103
   9.1707673  30.9107093  46.0293543   9.4392983  23.6276063  45.6839903
   9.8157803  22.7547943  45.5713573   9.3412493  23.9634763  44.7930343
   3.5697993  22.0001693  41.1457343   3.6764743  22.9005423  41.4526103
   2.6590353  21.9519663  40.8551993  13.2217103  21.1226503  42.6168243
  14.0426723  20.6323073  42.6593723  13.2551183  21.7124163  43.3700083
   5.4105723  24.9688063  45.4782523   5.9183943  25.4669033  46.1187543
   5.9418963  24.1923263  45.3021883  17.5116653  23.1393253  49.1811873
  16.8068823  23.5274963  48.6626983  17.7774573  23.8343543  49.7832803
   3.6941823  19.6086623  49.7445943   3.6960263  20.1259013  48.9391843
   2.8646133  19.1316803  49.7215873  10.0812913  29.7205933  41.2435843
   9.4630183  30.1855383  40.6798563  10.5936163  30.4133413  41.6605353
   4.9444673  29.2481803  47.9219443   4.6114053  29.8750723  48.5640513
   5.1211353  29.7743683  47.1421113  13.4578583  23.0626883  45.3895783
  12.7534153  23.3511773  45.9698893  13.8190743  23.8726993  45.0295343
   3.3757153  21.3196583  47.7516393   3.7173963  22.1638633  47.4570263
   2.4372963  21.4680323  47.8681733   4.1563773  31.2162603  49.7368623
   4.7737773  31.8913683  49.4553073   3.2956893  31.6250583  49.6456123
  15.0741363  32.6802013  47.6523263  14.3904883  33.3501123  47.6439933
  15.6135653  32.8782663  46.8868123  16.5265503  22.5081673  45.7804993
  15.5790413  22.5420653  45.9120423  16.8515493  23.3220623  46.1654353
   7.0585043  18.8078853  44.0760983   7.3660023  18.2525743  43.3596483
   6.1285743  18.9423313  43.8933973  12.6100103  34.5246143  46.3668443
  12.6227263  34.1208433  45.4990703  12.0575323  35.2993433  46.2629873
  13.9045523  31.2462363  41.4558613  13.7941853  30.3036693  41.5808033
  13.9013773  31.6078003  42.3421373  12.0085543  29.4275983  47.6951053
  12.4254333  29.2136093  46.8604513  12.7325363  29.6848773  48.2659673
   9.4465803  26.8727683  40.8121103   8.5195083  26.8065063  41.0409573
   9.5990623  27.8107813  40.6976343   9.4334883  23.1444683  37.8088263
   8.4938553  23.3058643  37.8940723   9.7518143  23.8630363  37.2624253
  15.9547643  27.8263203  47.7867293  15.1266273  27.8956293  47.3117423
  16.5498123  28.4117513  47.3183123  13.4763093  28.4347983  41.3156353
  12.8575513  28.0967533  40.6682653  13.4587543  27.7907743  42.0235543
  12.9189653  24.6132523  48.7322163  12.5060833  25.4386233  48.9862153
  12.1865603  24.0277563  48.5398523   5.0522443  27.3992423  43.5940833
   4.6479443  26.6869673  43.0986733   5.1385563  27.0545663  44.4828873
   5.5204143  31.0859983  45.7580043   5.2232433  30.4805453  45.0787823
   6.4703963  31.1237293  45.6469403   3.7651063  24.1735633  47.3739873
   4.3165653  24.2830973  46.5993123   4.2794573  24.5473233  48.0895103
  13.6089753  34.6591853  49.4203143  13.1320313  35.4664043  49.2275753
  12.9251543  34.0070183  49.5729353   4.6122573  30.8241673  52.4087843
   3.7151103  31.0481643  52.6561243   4.6375443  30.9476613  51.4599243
  11.6527793  27.6734793  38.3229103  12.0921073  26.8357223  38.1766923
  12.3656213  28.3064193  38.4093243   3.4393793  27.6954993  50.9845213
   3.3001563  28.5677793  51.3532613   2.5575153  27.3527803  50.8393153
   9.7623173  32.6130863  42.2910343  10.2019083  33.3555193  41.8765733
   9.7010063  32.8557433  43.2149303   5.2374143  33.6376693  53.1930363
   5.2089573  34.0419643  52.3258793   5.0739113  32.7087053  53.0301963
  15.2344933  18.9277603  36.6370143  14.9217593  19.0204433  37.5369213
  15.9957403  19.5058633  36.5867573  17.1888963  34.4203793  54.4894533
  17.6648683  34.8986683  55.1683613  17.8096123  34.3521283  53.7640033
  16.5922213  31.6116643  51.6494543  16.7185273  31.3728523  50.7311723
  16.6343593  30.7801183  52.1216623  10.4538953  35.3144643  50.2189353
  10.9683623  35.2252653  51.0211783   9.6108033  35.6604343  50.5117263
  12.4293353  35.5999983  39.6473353  12.2694493  35.3102923  40.5455183
  12.2640063  34.8240113  39.1118583   4.9081733  35.3798513  41.4244973
   4.7324213  34.4634053  41.2112773   4.0537473  35.7385803  41.6642773
  12.1319483  33.1087543  38.2071353  11.4384643  33.1064833  37.5473633
  12.8742343  32.6846863  37.7765523  11.6969413  34.7350253  42.2819843
  12.1526363  33.9539633  42.5958463  12.0361933  35.4457073  42.8261023
  16.4446223  23.6649103  52.6144283  15.8290493  24.1728773  52.0859743
  16.1242643  22.7647433  52.5570223   4.2190733  19.6372473  44.4771153
   3.7758883  20.4182013  44.1455673   4.7775723  19.9602363  45.1842093
   8.5060543  22.5040993  50.0806473   8.0439913  22.7124013  50.8926413
   8.1038653  21.6900343  49.7777143  13.5065053  23.7249943  51.2103133
  12.6558643  23.4255693  51.5312203  13.3466843  23.9691953  50.2986953
  10.6014763  25.2251693  53.3101923  10.9268173  24.3915443  52.9704153
  11.3895093  25.7480213  53.4580253   7.3349553  19.2583173  39.3576983
   6.7103733  19.2543043  40.0830293   7.2479673  18.3914133  38.9612953
   6.2566633  20.1819803  46.3360753   6.5538963  21.0882633  46.2552773
   6.8052193  19.6938583  45.7220323   4.0104953  24.7606043  42.2052403
   3.7845873  24.5443213  43.1099023   3.2297483  25.1934503  41.8598373
  11.2402713  24.7669413  40.8043053  10.6411603  25.4905213  40.6206673
  11.7882323  24.7046193  40.0219503   6.4504163  25.6591623  52.8712673
   6.3547763  24.7186353  52.7213073   7.2936143  25.8806693  52.4760743
   9.8467583  23.4032953  42.8346333  10.2397153  23.7205153  42.0215023
  10.2084433  22.5244833  42.9490853   8.1559753  22.1540263  54.0943193
   7.4658073  21.9612463  54.7289283   8.8992053  22.4374903  54.6267493
  10.4322723  25.9938703  46.9297113   9.7003843  26.5025513  47.2787213
  10.0347063  25.1768683  46.6285893   6.8700113  22.6692903  45.3349603
   6.8736173  22.2282853  44.4854143   7.7651233  22.9910233  45.4421423
   2.7202493  22.5519393  44.2943813   2.3802543  23.0294623  45.0510863
   1.9579813  22.0984513  43.9344913   6.9320263  23.6704983  38.3256363
   7.0533083  23.6291463  39.2742183   6.5468773  24.5329133  38.1703093
  10.8948633  21.4472383  46.3420053  10.9121373  21.8981033  47.1861903
  10.6464213  20.5478023  46.5553493   5.9441763  25.9806123  37.7239663
   5.3758663  25.5324373  37.0975573   6.6530763  26.3398903  37.1904813
  14.3219383  18.8604563  52.1806433  14.6465153  18.1294223  52.7064413
  14.3575893  18.5418203  51.2787423   7.1708083  26.7294683  47.0815013
   7.5378213  26.2553253  47.8276353   6.9813143  27.6036253  47.4223353
   4.9607453  25.7703323  49.3999223   4.6564523  26.6495303  49.6249583
   5.9153913  25.8303113  49.4356663   3.4889243  29.9764313  39.9966073
   2.7151503  29.4361933  39.8364793   4.2183873  29.4570923  39.6583833
  14.2477223  28.9729673  45.7892463  14.9676343  29.4684963  45.3988573
  14.0459043  28.2947563  45.1446333   9.7087163  20.3667633  39.9321853
   8.8951773  19.8680803  39.8567163   9.5149113  21.2065883  39.5158203
   9.6296023  29.0438733  51.6761463   9.5633333  28.1234403  51.4219053
   9.0001163  29.1414173  52.3906103  12.4235553  24.7387283  38.2284013
  13.3115173  25.0504513  38.0535353  12.3940643  23.8659533  37.8364593
   3.5326643  29.6444693  43.6344883   4.0505313  28.8412953  43.5801773
   3.0810663  29.5823833  44.4761713   8.4196143  30.9110973  38.9072183
   8.7611843  31.6553203  38.4115503   7.5908853  31.2242093  39.2697013
   4.2184303  27.0690303  53.4310133   3.9184443  27.2147483  52.5337953
   4.9895543  26.5095593  53.3383523   9.5612753  31.8659303  51.4265263
   9.5757293  30.9340263  51.2084173   8.8537853  31.9519063  52.0655033
  14.6949823  26.0499123  37.6963873  14.6113543  26.4813343  36.8460313
  15.4144013  26.5097473  38.1290693  15.7723963  28.5066643  50.7733843
  15.0472153  29.0995423  50.5763233  16.2999423  28.4990183  49.9747213
  15.7237073  32.9041383  40.4246003  15.0813233  32.2497003  40.6989723
  15.3367733  33.3096473  39.6486673  11.3023553  30.2326813  44.2717693
  11.6547373  29.6354943  43.6119063  10.4185883  29.9071043  44.4425943
   7.3886833  30.9924503  41.6788103   8.0757963  31.5393713  42.0595693
   6.6019253  31.5365233  41.7137713   6.6914043  27.9970533  41.2913463
   7.1476823  28.8075783  41.5173653   6.3402253  27.6793673  42.1231953
   8.9946653  33.5076873  48.5205763   9.6388873  33.7136253  49.1979183
   9.3576093  32.7465273  48.0676613   2.5925823  18.3408183  41.7635983
   2.4640453  18.3326083  42.7120903   1.7687843  18.6791273  41.4126993
  10.2678733  31.5109223  47.2383213  10.9100963  30.8102383  47.3515383
  10.7928083  32.2907663  47.0580103  14.1134453  31.7957843  36.9622353
  13.8872033  31.0788283  37.5546993  13.7230653  31.5470283  36.1244103
  12.0416353  32.3104123  50.4419273  12.3772593  32.8970813  51.1197193
  11.1216693  32.1796833  50.6717063  13.6950703  29.7129783  38.6236513
  13.4072403  30.1742473  39.4114393  14.4902873  29.2527553  38.8920733
   7.8704933  32.3595453  53.6107333   7.5501803  31.6404693  54.1553023
   7.1963293  33.0350523  53.6843393   5.9119103  33.2055903  38.5540483
   5.9029203  33.9385593  37.9384993   4.9917463  32.9587483  38.6467443
  11.0858533  22.5921613  48.9744133  11.4539353  21.7716823  49.3023703
  10.2256733  22.6523503  49.3899783  14.4520563  21.5478553  39.7831693
  13.8233723  21.6524223  39.0689923  13.9572483  21.7675333  40.5725573
   8.8978703  33.2684143  37.2165673   8.9990683  33.0648133  36.2867653
   7.9980443  33.0142423  37.4213453   6.4204593  23.8264503  41.1989573
   5.7120743  24.2950843  41.6403183   6.7049073  23.1686513  41.8334763
   8.0460523  25.2461203  49.1982103   8.5445773  25.7207023  49.8633953
   8.1883473  24.3224723  49.4052133  10.4520023  20.5515163  42.6385363
  10.3287803  20.5701293  41.6894873  11.4004583  20.5994103  42.7583763
   7.5396813  35.7870463  41.9113343   7.7938313  35.7491853  40.9892713
   6.5909293  35.6603793  41.9041593   4.6239613  22.1349583  38.5740283
   5.4730143  22.5719733  38.5080473   4.2570883  22.4469843  39.4012343
  15.2527383  21.4629163  50.0410493  14.7500983  22.2034563  50.3804303
  16.0684043  21.8513163  49.7247283  13.5449393  26.7062343  43.4871853
  12.6039533  26.7212573  43.6619543  13.8593463  25.9198303  43.9332153
   3.5231033  28.3881943  37.0475813   4.2894303  28.2763303  37.6101243
   3.6005723  27.6919913  36.3952583   2.2177793  25.8207013  37.7308703
   2.2981383  24.8734523  37.8426103   3.1097543  26.1513893  37.8369363
  15.5474973  33.8771193  45.1626113  15.6722393  34.7002363  45.6349923
  16.4140533  33.6661923  44.8150263   3.0192503  35.9702403  44.8343243
   3.7554983  35.4217863  45.1051813   3.4033423  36.8358413  44.6949233
   2.0250783  35.1548473  54.0228823   2.8263513  35.4760523  54.4364223
   1.5102603  34.7944053  54.7448733   6.1294813  35.1432713  36.6568813
   6.9223423  35.4321543  36.2050603   5.6099163  34.7124883  35.9781293
  10.8615413  31.2628343  53.9704233  10.2553573  31.2859943  53.2299983
  10.5569523  30.5311383  54.5071483  12.2915783  34.9908633  52.5813643
  13.2437533  34.9066653  52.5313883  12.1444003  35.6550343  53.2547433
  15.1824983  34.3702843  38.0805553  14.8966493  33.9567983  37.2659733
  14.9844533  35.2990553  37.9606073   6.6472213  30.3636123  36.5211163
   6.5422853  29.7488473  37.2472543   6.4796433  29.8402013  35.7374173
   6.7986533  29.0492923  52.5000393   6.0332203  29.6177923  52.4155063
   6.9802493  28.7569133  51.6068623   9.8874943  29.4256153  37.1253153
   9.3385043  29.8725453  37.7695893  10.5094203  28.9205403  37.6490823
  13.9409883  30.7798253  53.0575413  14.6819353  31.1174013  52.5542873
  13.1782563  30.9490313  52.5045183   1.7771673  25.7851523  53.8614943
   1.8177013  25.4865393  54.7700173   2.6317173  26.1859133  53.7022463
   5.5550063  28.3847073  39.0218453   5.9766483  28.2186943  39.8649843
   5.6800903  27.5747303  38.5273593   3.7177483  24.3643623  51.8289433
   3.1873943  23.8734573  51.2012773   4.3865553  24.7927823  51.2947363
   8.0677703  27.4084683  36.2695553   8.5883363  26.6933703  35.9036703
   8.7146103  28.0470553  36.5696063  12.6155543  28.8313083  51.5930623
  13.0296563  28.9858163  52.4421043  11.6806543  28.9568303  51.7556403
  13.0877713  26.1709243  53.5969773  13.6698483  25.4161563  53.5090253
  13.2639483  26.7016683  52.8201253   4.2049783  21.3305993  51.9086723
   4.1106653  20.7126743  51.1837593   3.6247173  22.0572283  51.6816633
   6.9711223  19.8879233  48.9414113   6.5228523  19.9103493  48.0959663
   6.3376423  19.4898253  49.5384413   7.3770773  28.7833563  49.5626553
   7.7958883  29.6266293  49.3902793   6.4579403  28.9205603  49.3333333
   9.7134673  26.5149743  50.9464393   9.8330883  25.9190883  51.6859233
  10.5728673  26.5519433  50.5265693  12.0522573  27.0686933  49.5226903
  11.5257793  27.5929553  48.9192043  12.3953913  27.7014323  50.1536633
   4.4508963  24.4580303  35.9676613   4.2498023  23.5947663  36.3289953
   4.2801013  24.3713663  35.0298213   5.2278193  35.0886573  50.6784283
   4.6899283  35.8132633  50.3592983   5.4812153  34.6116913  49.8881623
   6.4803443  23.0571093  52.2040213   7.0703133  22.7486943  52.8918033
   5.6623683  22.5850843  52.3600113  11.2996873  22.6736903  52.4373233
  10.6112393  22.0118443  52.3723223  12.0202893  22.2275173  52.8821693
  11.9297273  19.2688533  38.4963493  12.2099563  18.4256433  38.8522913
  11.1563003  19.5011643  39.0102243   3.2491763  21.5580923  35.9554493
   3.5517663  21.5648353  35.0473643   3.9886353  21.2078783  36.4522153
   8.0840403  36.3237783  50.9370933   8.0099103  37.2272923  51.2443303
   7.1819243  36.0049683  50.9093003   6.4676693  20.5015543  36.9410693
   6.1198693  19.8239533  36.3613143   6.6689463  20.0405053  37.7554083
   8.6325733  35.4896293  38.5597293   9.5276523  35.8281263  38.5816053
   8.6643363  34.7675703  37.9321573   2.2721893  30.8623343  36.7884293
   2.7096763  31.4053013  37.4441873   2.7569623  30.0370293  36.7980633
   4.0829613  31.9821383  41.9006523   3.7825153  31.8586353  42.8010433
   3.9767103  31.1229973  41.4922253  15.6120083  34.0199963  51.2663493
  15.0122073  34.0792523  50.5227413  15.7413983  33.0804943  51.3960343
  16.8521533  31.7617783  36.6033203  16.0214493  31.8294433  37.0740433
  17.0293363  32.6521903  36.3000063  16.3077993  28.5065263  39.1067403
  17.0696903  29.0761913  39.2127093  16.3232363  27.9392463  39.8775713
  17.3137963  29.3615363  43.9509333  17.6846793  28.5782683  43.5445303
  17.9539893  30.0504463  43.7726633  14.2971723  30.7451943  49.3639653
  13.4831563  31.1749103  49.6265443  14.7045923  31.3570353  48.7508703
  16.3597163  28.7999633  36.2639923  16.6346003  29.7078513  36.1359143
  16.1707903  28.7362163  37.2001913  12.7572773  21.8244483  37.5593553
  13.1757653  21.6375463  36.7190213  12.4508833  20.9723533  37.8696483
  16.2562503  26.7368623  41.2569353  15.8806103  25.9696553  40.8250643
  15.5265623  27.1191323  41.7444283  15.6462123  25.8840143  50.8908873
  15.4148213  25.6552893  49.9906823  15.9066673  26.8039693  50.8453763
  14.0850193  21.1096573  53.6688573  14.9620373  21.1179973  54.0522573
  14.0971033  20.3727413  53.0580923  15.5313463  24.9626113  44.5576593
  16.0550943  24.4688763  43.9266763  16.1172883  25.0976473  45.3024163
  15.7103183  25.0465983  48.0796143  14.7605893  25.0129523  48.1941133
  15.8916193  25.9566093  47.8445913  15.0213433  24.2199463  40.4969003
  15.5172553  23.9870333  41.2817883  14.8229503  23.3811303  40.0806643
  16.4500593  22.8560413  43.0306683  16.3399873  22.7016453  43.9688953
  17.2108183  22.3281353  42.7882093  14.7966313  18.7954543  49.4889683
  15.4338533  19.4088683  49.8548873  14.9441203  18.8315203  48.5438913
  17.3390863  20.6868333  36.2712823  18.2640173  20.5549513  36.0631113
  17.3166653  20.7661153  37.2249273  17.4129353  21.4578993  38.8969533
  16.6180853  21.3924113  39.4262443  17.6172633  22.3929633  38.8854883
  14.3547773  35.4970543  42.8907923  14.9506843  35.1755113  42.2142343
  14.6125923  35.0242363  43.6821193   2.2610343  31.9288453  53.0398553
   2.2179973  31.5581363  53.9213013   2.3921353  32.8666023  53.1800373
   5.9616373  33.4848043  48.6408273   5.7207733  33.7522603  47.7538793
   6.9019013  33.6553773  48.6959133   8.1670793  19.9480733  52.3964783
   8.1059683  20.5402563  53.1460193   9.1071173  19.8406693  52.2515043
  10.8045353  19.6050793  52.0357073  11.4185763  19.9230083  51.3738153
  11.3494913  19.1199383  52.6552933  17.2220533  35.5042423  49.4418913
  16.7278813  35.9011293  48.7246043  16.6133823  34.8791633  49.8356193
   2.0998373  34.8750703  50.1596333   1.5058693  34.7435403  50.8986373
   2.0922213  34.0388843  49.6938433  11.5453393  18.1682933  48.3626363
  10.6713233  18.5018043  48.1599293  11.4364143  17.6956113  49.1878233
  12.4525373  20.3753803  49.7468083  12.1238733  19.5605563  49.3669813
  13.4007673  20.3323613  49.6233773  14.9059983  36.1465843  46.7205653
  14.4462953  36.8981653  46.3463673  14.2772443  35.4272313  46.6620453
   5.3355703  34.4554083  45.8953783   5.8520723  33.8441443  45.3702043
   5.9853083  34.9582863  46.3864793   8.0751203  35.3462573  46.7222763
   8.3629013  35.0916873  45.8455773   8.5874423  34.7939933  47.3128333
   9.2928213  19.0852773  47.3019273   8.5100003  19.5598273  47.5816033
   8.9991143  18.1807603  47.1932453  13.8449283  19.7875873  45.3468363
  14.2857373  19.7320973  44.4989963  13.5756873  20.7033883  45.4178543
  15.7087853  19.4191113  43.3577183  15.6476253  18.4752333  43.2108203
  16.4879883  19.5271203  43.9030643   7.1782433  21.5039523  42.8135303
   6.3656943  21.1296413  42.4731183   7.6824073  20.7484603  43.1156493
  11.6807413  18.1681973  44.0518373  12.2836783  18.7402183  44.5266893
  10.9400403  18.7321413  43.8292273  14.8242013  18.5703533  39.3258653
  15.0192643  19.4686983  39.5926083  14.0371883  18.3390613  39.8191603
   3.0093773  19.9164303  38.3634963   3.5386533  19.1294103  38.2342913
   3.6422093  20.5955493  38.5970493   5.2031613  19.6539443  41.4180353
   4.5734353  18.9526753  41.5850483   4.6636753  20.4143573  41.2013513
   8.1423563  36.2678673  54.0890963   9.0690873  36.0322943  54.1326923
   8.1273993  37.0950673  53.6076993  16.3768623  35.8104243  41.0865213
  16.5520813  35.1241983  40.4426133  15.6790193  36.3351293  40.6941883
   5.3287173  18.9323423  53.8532843   5.0471443  19.4357023  53.0893663
   5.7106873  18.1345173  53.4874973   4.2196273  36.1999083  38.6400523
   4.9515093  35.9158363  38.0924413   4.4789943  35.9612363  39.5299903
   3.3811063  32.3163813  38.6446853   2.7519943  32.7848913  39.1932683
   3.4958893  31.4713033  39.0793043  11.9302633  18.3477003  54.4313313
  11.8168083  18.6671613  55.3264833  12.7472373  18.7489513  54.1350593
  14.7101123  35.4948533  53.9132003  15.5026443  34.9997763  53.7057963
  15.0034273  36.1738673  54.5207613  10.8360783  26.3669473  24.7948053
  10.7554833  25.4524083  24.5239763  10.4225203  26.8636543  24.0887763
   8.9678823  28.1448493  26.6757323   8.1920923  27.6648933  26.9655893
   9.6191753  27.4654143  26.5013483   2.9844653  28.4568303  27.5533083
   2.1529533  28.2017013  27.9529593   3.5925633  28.5279073  28.2891003
  12.9886253  32.5508683  25.4556453  12.5267783  31.7795923  25.7843623
  13.8011803  32.5774753  25.9608903   2.9645913  32.4908393  27.7491103
   3.2673953  31.6006133  27.5701323   3.7089503  33.0478613  27.5213353
   9.2149563  34.8366693  25.0760443   8.5961003  35.2924193  24.5054883
  10.0701343  34.9918153  24.6750143   8.4087813  30.8205683  26.6827483
   8.3396093  29.8795623  26.5216613   9.1707673  30.9107093  27.2550053
   9.4392983  23.6276063  26.9096413   9.8157803  22.7547943  26.7970083
   9.3412493  23.9634763  26.0186853   3.5697993  22.0001693  22.3713853
   3.6764743  22.9005423  22.6782613   2.6590353  21.9519663  22.0808503
  13.2217103  21.1226503  23.8424753  14.0426723  20.6323073  23.8850233
  13.2551183  21.7124163  24.5956593   5.4105723  24.9688063  26.7039033
   5.9183943  25.4669033  27.3444053   5.9418963  24.1923263  26.5278393
  17.5116653  23.1393253  30.4068383  16.8068823  23.5274963  29.8883493
  17.7774573  23.8343543  31.0089313   3.6941823  19.6086623  30.9702453
   3.6960263  20.1259013  30.1648353   2.8646133  19.1316803  30.9472383
  10.0812913  29.7205933  22.4692353   9.4630183  30.1855383  21.9055073
  10.5936163  30.4133413  22.8861863   4.9444673  29.2481803  29.1475953
   4.6114053  29.8750723  29.7897023   5.1211353  29.7743683  28.3677623
  13.4578583  23.0626883  26.6152293  12.7534153  23.3511773  27.1955403
  13.8190743  23.8726993  26.2551853   3.3757153  21.3196583  28.9772903
   3.7173963  22.1638633  28.6826773   2.4372963  21.4680323  29.0938243
   4.1563773  31.2162603  30.9625133   4.7737773  31.8913683  30.6809583
   3.2956893  31.6250583  30.8712633  15.0741363  32.6802013  28.8779773
  14.3904883  33.3501123  28.8696443  15.6135653  32.8782663  28.1124633
  16.5265503  22.5081673  27.0061503  15.5790413  22.5420653  27.1376933
  16.8515493  23.3220623  27.3910863   7.0585043  18.8078853  25.3017493
   7.3660023  18.2525743  24.5852993   6.1285743  18.9423313  25.1190483
  12.6100103  34.5246143  27.5924953  12.6227263  34.1208433  26.7247213
  12.0575323  35.2993433  27.4886383  13.9045523  31.2462363  22.6815123
  13.7941853  30.3036693  22.8064543  13.9013773  31.6078003  23.5677883
  12.0085543  29.4275983  28.9207563  12.4254333  29.2136093  28.0861023
  12.7325363  29.6848773  29.4916183   9.4465803  26.8727683  22.0377613
   8.5195083  26.8065063  22.2666083   9.5990623  27.8107813  21.9232853
   9.4334883  23.1444683  19.0344773   8.4938553  23.3058643  19.1197233
   9.7518143  23.8630363  18.4880763  15.9547643  27.8263203  29.0123803
  15.1266273  27.8956293  28.5373933  16.5498123  28.4117513  28.5439633
  13.4763093  28.4347983  22.5412863  12.8575513  28.0967533  21.8939163
  13.4587543  27.7907743  23.2492053  12.9189653  24.6132523  29.9578673
  12.5060833  25.4386233  30.2118663  12.1865603  24.0277563  29.7655033
   5.0522443  27.3992423  24.8197343   4.6479443  26.6869673  24.3243243
   5.1385563  27.0545663  25.7085383   5.5204143  31.0859983  26.9836553
   5.2232433  30.4805453  26.3044333   6.4703963  31.1237293  26.8725913
   3.7651063  24.1735633  28.5996383   4.3165653  24.2830973  27.8249633
   4.2794573  24.5473233  29.3151613  13.6089753  34.6591853  30.6459653
  13.1320313  35.4664043  30.4532263  12.9251543  34.0070183  30.7985863
   4.6122573  30.8241673  33.6344353   3.7151103  31.0481643  33.8817753
   4.6375443  30.9476613  32.6855753  11.6527793  27.6734793  19.5485613
  12.0921073  26.8357223  19.4023433  12.3656213  28.3064193  19.6349753
   3.4393793  27.6954993  32.2101723   3.3001563  28.5677793  32.5789123
   2.5575153  27.3527803  32.0649663   9.7623173  32.6130863  23.5166853
  10.2019083  33.3555193  23.1022243   9.7010063  32.8557433  24.4405813
   5.2374143  33.6376693  34.4186873   5.2089573  34.0419643  33.5515303
   5.0739113  32.7087053  34.2558473  15.2344933  18.9277603  17.8626653
  14.9217593  19.0204433  18.7625723  15.9957403  19.5058633  17.8124083
  17.1888963  34.4203793  35.7151043  17.6648683  34.8986683  36.3940123
  17.8096123  34.3521283  34.9896543  16.5922213  31.6116643  32.8751053
  16.7185273  31.3728523  31.9568233  16.6343593  30.7801183  33.3473133
  10.4538953  35.3144643  31.4445863  10.9683623  35.2252653  32.2468293
   9.6108033  35.6604343  31.7373773  12.4293353  35.5999983  20.8729863
  12.2694493  35.3102923  21.7711693  12.2640063  34.8240113  20.3375093
   4.9081733  35.3798513  22.6501483   4.7324213  34.4634053  22.4369283
   4.0537473  35.7385803  22.8899283  12.1319483  33.1087543  19.4327863
  11.4384643  33.1064833  18.7730143  12.8742343  32.6846863  19.0022033
  11.6969413  34.7350253  23.5076353  12.1526363  33.9539633  23.8214973
  12.0361933  35.4457073  24.0517533  16.4446223  23.6649103  33.8400793
  15.8290493  24.1728773  33.3116253  16.1242643  22.7647433  33.7826733
   4.2190733  19.6372473  25.7027663   3.7758883  20.4182013  25.3712183
   4.7775723  19.9602363  26.4098603   8.5060543  22.5040993  31.3062983
   8.0439913  22.7124013  32.1182923   8.1038653  21.6900343  31.0033653
  13.5065053  23.7249943  32.4359643  12.6558643  23.4255693  32.7568713
  13.3466843  23.9691953  31.5243463  10.6014763  25.2251693  34.5358433
  10.9268173  24.3915443  34.1960663  11.3895093  25.7480213  34.6836763
   7.3349553  19.2583173  20.5833493   6.7103733  19.2543043  21.3086803
   7.2479673  18.3914133  20.1869463   6.2566633  20.1819803  27.5617263
   6.5538963  21.0882633  27.4809283   6.8052193  19.6938583  26.9476833
   4.0104953  24.7606043  23.4308913   3.7845873  24.5443213  24.3355533
   3.2297483  25.1934503  23.0854883  11.2402713  24.7669413  22.0299563
  10.6411603  25.4905213  21.8463183  11.7882323  24.7046193  21.2476013
   6.4504163  25.6591623  34.0969183   6.3547763  24.7186353  33.9469583
   7.2936143  25.8806693  33.7017253   9.8467583  23.4032953  24.0602843
  10.2397153  23.7205153  23.2471533  10.2084433  22.5244833  24.1747363
   8.1559753  22.1540263  35.3199703   7.4658073  21.9612463  35.9545793
   8.8992053  22.4374903  35.8524003  10.4322723  25.9938703  28.1553623
   9.7003843  26.5025513  28.5043723  10.0347063  25.1768683  27.8542403
   6.8700113  22.6692903  26.5606113   6.8736173  22.2282853  25.7110653
   7.7651233  22.9910233  26.6677933   2.7202493  22.5519393  25.5200323
   2.3802543  23.0294623  26.2767373   1.9579813  22.0984513  25.1601423
   6.9320263  23.6704983  19.5512873   7.0533083  23.6291463  20.4998693
   6.5468773  24.5329133  19.3959603  10.8948633  21.4472383  27.5676563
  10.9121373  21.8981033  28.4118413  10.6464213  20.5478023  27.7810003
   5.9441763  25.9806123  18.9496173   5.3758663  25.5324373  18.3232083
   6.6530763  26.3398903  18.4161323  14.3219383  18.8604563  33.4062943
  14.6465153  18.1294223  33.9320923  14.3575893  18.5418203  32.5043933
   7.1708083  26.7294683  28.3071523   7.5378213  26.2553253  29.0532863
   6.9813143  27.6036253  28.6479863   4.9607453  25.7703323  30.6255733
   4.6564523  26.6495303  30.8506093   5.9153913  25.8303113  30.6613173
   3.4889243  29.9764313  21.2222583   2.7151503  29.4361933  21.0621303
   4.2183873  29.4570923  20.8840343  14.2477223  28.9729673  27.0148973
  14.9676343  29.4684963  26.6245083  14.0459043  28.2947563  26.3702843
   9.7087163  20.3667633  21.1578363   8.8951773  19.8680803  21.0823673
   9.5149113  21.2065883  20.7414713   9.6296023  29.0438733  32.9017973
   9.5633333  28.1234403  32.6475563   9.0001163  29.1414173  33.6162613
  12.4235553  24.7387283  19.4540523  13.3115173  25.0504513  19.2791863
  12.3940643  23.8659533  19.0621103   3.5326643  29.6444693  24.8601393
   4.0505313  28.8412953  24.8058283   3.0810663  29.5823833  25.7018223
   8.4196143  30.9110973  20.1328693   8.7611843  31.6553203  19.6372013
   7.5908853  31.2242093  20.4953523   4.2184303  27.0690303  34.6566643
   3.9184443  27.2147483  33.7594463   4.9895543  26.5095593  34.5640033
   9.5612753  31.8659303  32.6521773   9.5757293  30.9340263  32.4340683
   8.8537853  31.9519063  33.2911543  14.6949823  26.0499123  18.9220383
  14.6113543  26.4813343  18.0716823  15.4144013  26.5097473  19.3547203
  15.7723963  28.5066643  31.9990353  15.0472153  29.0995423  31.8019743
  16.2999423  28.4990183  31.2003723  15.7237073  32.9041383  21.6502513
  15.0813233  32.2497003  21.9246233  15.3367733  33.3096473  20.8743183
  11.3023553  30.2326813  25.4974203  11.6547373  29.6354943  24.8375573
  10.4185883  29.9071043  25.6682453   7.3886833  30.9924503  22.9044613
   8.0757963  31.5393713  23.2852203   6.6019253  31.5365233  22.9394223
   6.6914043  27.9970533  22.5169973   7.1476823  28.8075783  22.7430163
   6.3402253  27.6793673  23.3488463   8.9946653  33.5076873  29.7462273
   9.6388873  33.7136253  30.4235693   9.3576093  32.7465273  29.2933123
   2.5925823  18.3408183  22.9892493   2.4640453  18.3326083  23.9377413
   1.7687843  18.6791273  22.6383503  10.2678733  31.5109223  28.4639723
  10.9100963  30.8102383  28.5771893  10.7928083  32.2907663  28.2836613
  14.1134453  31.7957843  18.1878863  13.8872033  31.0788283  18.7803503
  13.7230653  31.5470283  17.3500613  12.0416353  32.3104123  31.6675783
  12.3772593  32.8970813  32.3453703  11.1216693  32.1796833  31.8973573
  13.6950703  29.7129783  19.8493023  13.4072403  30.1742473  20.6370903
  14.4902873  29.2527553  20.1177243   7.8704933  32.3595453  34.8363843
   7.5501803  31.6404693  35.3809533   7.1963293  33.0350523  34.9099903
   5.9119103  33.2055903  19.7796993   5.9029203  33.9385593  19.1641503
   4.9917463  32.9587483  19.8723953  11.0858533  22.5921613  30.2000643
  11.4539353  21.7716823  30.5280213  10.2256733  22.6523503  30.6156293
  14.4520563  21.5478553  21.0088203  13.8233723  21.6524223  20.2946433
  13.9572483  21.7675333  21.7982083   8.8978703  33.2684143  18.4422183
   8.9990683  33.0648133  17.5124163   7.9980443  33.0142423  18.6469963
   6.4204593  23.8264503  22.4246083   5.7120743  24.2950843  22.8659693
   6.7049073  23.1686513  23.0591273   8.0460523  25.2461203  30.4238613
   8.5445773  25.7207023  31.0890463   8.1883473  24.3224723  30.6308643
  10.4520023  20.5515163  23.8641873  10.3287803  20.5701293  22.9151383
  11.4004583  20.5994103  23.9840273   7.5396813  35.7870463  23.1369853
   7.7938313  35.7491853  22.2149223   6.5909293  35.6603793  23.1298103
   4.6239613  22.1349583  19.7996793   5.4730143  22.5719733  19.7336983
   4.2570883  22.4469843  20.6268853  15.2527383  21.4629163  31.2667003
  14.7500983  22.2034563  31.6060813  16.0684043  21.8513163  30.9503793
  13.5449393  26.7062343  24.7128363  12.6039533  26.7212573  24.8876053
  13.8593463  25.9198303  25.1588663   3.5231033  28.3881943  18.2732323
   4.2894303  28.2763303  18.8357753   3.6005723  27.6919913  17.6209093
   2.2177793  25.8207013  18.9565213   2.2981383  24.8734523  19.0682613
   3.1097543  26.1513893  19.0625873  15.5474973  33.8771193  26.3882623
  15.6722393  34.7002363  26.8606433  16.4140533  33.6661923  26.0406773
   3.0192503  35.9702403  26.0599753   3.7554983  35.4217863  26.3308323
   3.4033423  36.8358413  25.9205743   2.0250783  35.1548473  35.2485333
   2.8263513  35.4760523  35.6620733   1.5102603  34.7944053  35.9705243
   6.1294813  35.1432713  17.8825323   6.9223423  35.4321543  17.4307113
   5.6099163  34.7124883  17.2037803  10.8615413  31.2628343  35.1960743
  10.2553573  31.2859943  34.4556493  10.5569523  30.5311383  35.7327993
  12.2915783  34.9908633  33.8070153  13.2437533  34.9066653  33.7570393
  12.1444003  35.6550343  34.4803943  15.1824983  34.3702843  19.3062063
  14.8966493  33.9567983  18.4916243  14.9844533  35.2990553  19.1862583
   6.6472213  30.3636123  17.7467673   6.5422853  29.7488473  18.4729053
   6.4796433  29.8402013  16.9630683   6.7986533  29.0492923  33.7256903
   6.0332203  29.6177923  33.6411573   6.9802493  28.7569133  32.8325133
   9.8874943  29.4256153  18.3509663   9.3385043  29.8725453  18.9952403
  10.5094203  28.9205403  18.8747333  13.9409883  30.7798253  34.2831923
  14.6819353  31.1174013  33.7799383  13.1782563  30.9490313  33.7301693
   1.7771673  25.7851523  35.0871453   1.8177013  25.4865393  35.9956683
   2.6317173  26.1859133  34.9278973   5.5550063  28.3847073  20.2474963
   5.9766483  28.2186943  21.0906353   5.6800903  27.5747303  19.7530103
   3.7177483  24.3643623  33.0545943   3.1873943  23.8734573  32.4269283
   4.3865553  24.7927823  32.5203873   8.0677703  27.4084683  17.4952063
   8.5883363  26.6933703  17.1293213   8.7146103  28.0470553  17.7952573
  12.6155543  28.8313083  32.8187133  13.0296563  28.9858163  33.6677553
  11.6806543  28.9568303  32.9812913  13.0877713  26.1709243  34.8226283
  13.6698483  25.4161563  34.7346763  13.2639483  26.7016683  34.0457763
   4.2049783  21.3305993  33.1343233   4.1106653  20.7126743  32.4094103
   3.6247173  22.0572283  32.9073143   6.9711223  19.8879233  30.1670623
   6.5228523  19.9103493  29.3216173   6.3376423  19.4898253  30.7640923
   7.3770773  28.7833563  30.7883063   7.7958883  29.6266293  30.6159303
   6.4579403  28.9205603  30.5589843   9.7134673  26.5149743  32.1720903
   9.8330883  25.9190883  32.9115743  10.5728673  26.5519433  31.7522203
  12.0522573  27.0686933  30.7483413  11.5257793  27.5929553  30.1448553
  12.3953913  27.7014323  31.3793143   4.4508963  24.4580303  17.1933123
   4.2498023  23.5947663  17.5546463   4.2801013  24.3713663  16.2554723
   5.2278193  35.0886573  31.9040793   4.6899283  35.8132633  31.5849493
   5.4812153  34.6116913  31.1138133   6.4803443  23.0571093  33.4296723
   7.0703133  22.7486943  34.1174543   5.6623683  22.5850843  33.5856623
  11.2996873  22.6736903  33.6629743  10.6112393  22.0118443  33.5979733
  12.0202893  22.2275173  34.1078203  11.9297273  19.2688533  19.7220003
  12.2099563  18.4256433  20.0779423  11.1563003  19.5011643  20.2358753
   3.2491763  21.5580923  17.1811003   3.5517663  21.5648353  16.2730153
   3.9886353  21.2078783  17.6778663   8.0840403  36.3237783  32.1627443
   8.0099103  37.2272923  32.4699813   7.1819243  36.0049683  32.1349513
   6.4676693  20.5015543  18.1667203   6.1198693  19.8239533  17.5869653
   6.6689463  20.0405053  18.9810593   8.6325733  35.4896293  19.7853803
   9.5276523  35.8281263  19.8072563   8.6643363  34.7675703  19.1578083
   2.2721893  30.8623343  18.0140803   2.7096763  31.4053013  18.6698383
   2.7569623  30.0370293  18.0237143   4.0829613  31.9821383  23.1263033
   3.7825153  31.8586353  24.0266943   3.9767103  31.1229973  22.7178763
  15.6120083  34.0199963  32.4920003  15.0122073  34.0792523  31.7483923
  15.7413983  33.0804943  32.6216853  16.8521533  31.7617783  17.8289713
  16.0214493  31.8294433  18.2996943  17.0293363  32.6521903  17.5256573
  16.3077993  28.5065263  20.3323913  17.0696903  29.0761913  20.4383603
  16.3232363  27.9392463  21.1032223  17.3137963  29.3615363  25.1765843
  17.6846793  28.5782683  24.7701813  17.9539893  30.0504463  24.9983143
  14.2971723  30.7451943  30.5896163  13.4831563  31.1749103  30.8521953
  14.7045923  31.3570353  29.9765213  16.3597163  28.7999633  17.4896433
  16.6346003  29.7078513  17.3615653  16.1707903  28.7362163  18.4258423
  12.7572773  21.8244483  18.7850063  13.1757653  21.6375463  17.9446723
  12.4508833  20.9723533  19.0952993  16.2562503  26.7368623  22.4825863
  15.8806103  25.9696553  22.0507153  15.5265623  27.1191323  22.9700793
  15.6462123  25.8840143  32.1165383  15.4148213  25.6552893  31.2163333
  15.9066673  26.8039693  32.0710273  14.0850193  21.1096573  34.8945083
  14.9620373  21.1179973  35.2779083  14.0971033  20.3727413  34.2837433
  15.5313463  24.9626113  25.7833103  16.0550943  24.4688763  25.1523273
  16.1172883  25.0976473  26.5280673  15.7103183  25.0465983  29.3052653
  14.7605893  25.0129523  29.4197643  15.8916193  25.9566093  29.0702423
  15.0213433  24.2199463  21.7225513  15.5172553  23.9870333  22.5074393
  14.8229503  23.3811303  21.3063153  16.4500593  22.8560413  24.2563193
  16.3399873  22.7016453  25.1945463  17.2108183  22.3281353  24.0138603
  14.7966313  18.7954543  30.7146193  15.4338533  19.4088683  31.0805383
  14.9441203  18.8315203  29.7695423  17.3390863  20.6868333  17.4969333
  18.2640173  20.5549513  17.2887623  17.3166653  20.7661153  18.4505783
  17.4129353  21.4578993  20.1226043  16.6180853  21.3924113  20.6518953
  17.6172633  22.3929633  20.1111393  14.3547773  35.4970543  24.1164433
  14.9506843  35.1755113  23.4398853  14.6125923  35.0242363  24.9077703
   2.2610343  31.9288453  34.2655063   2.2179973  31.5581363  35.1469523
   2.3921353  32.8666023  34.4056883   5.9616373  33.4848043  29.8664783
   5.7207733  33.7522603  28.9795303   6.9019013  33.6553773  29.9215643
   8.1670793  19.9480733  33.6221293   8.1059683  20.5402563  34.3716703
   9.1071173  19.8406693  33.4771553  10.8045353  19.6050793  33.2613583
  11.4185763  19.9230083  32.5994663  11.3494913  19.1199383  33.8809443
  17.2220533  35.5042423  30.6675423  16.7278813  35.9011293  29.9502553
  16.6133823  34.8791633  31.0612703   2.0998373  34.8750703  31.3852843
   1.5058693  34.7435403  32.1242883   2.0922213  34.0388843  30.9194943
  11.5453393  18.1682933  29.5882873  10.6713233  18.5018043  29.3855803
  11.4364143  17.6956113  30.4134743  12.4525373  20.3753803  30.9724593
  12.1238733  19.5605563  30.5926323  13.4007673  20.3323613  30.8490283
  14.9059983  36.1465843  27.9462163  14.4462953  36.8981653  27.5720183
  14.2772443  35.4272313  27.8876963   5.3355703  34.4554083  27.1210293
   5.8520723  33.8441443  26.5958553   5.9853083  34.9582863  27.6121303
   8.0751203  35.3462573  27.9479273   8.3629013  35.0916873  27.0712283
   8.5874423  34.7939933  28.5384843   9.2928213  19.0852773  28.5275783
   8.5100003  19.5598273  28.8072543   8.9991143  18.1807603  28.4188963
  13.8449283  19.7875873  26.5724873  14.2857373  19.7320973  25.7246473
  13.5756873  20.7033883  26.6435053  15.7087853  19.4191113  24.5833693
  15.6476253  18.4752333  24.4364713  16.4879883  19.5271203  25.1287153
   7.1782433  21.5039523  24.0391813   6.3656943  21.1296413  23.6987693
   7.6824073  20.7484603  24.3413003  11.6807413  18.1681973  25.2774883
  12.2836783  18.7402183  25.7523403  10.9400403  18.7321413  25.0548783
  14.8242013  18.5703533  20.5515163  15.0192643  19.4686983  20.8182593
  14.0371883  18.3390613  21.0448113   3.0093773  19.9164303  19.5891473
   3.5386533  19.1294103  19.4599423   3.6422093  20.5955493  19.8227003
   5.2031613  19.6539443  22.6436863   4.5734353  18.9526753  22.8106993
   4.6636753  20.4143573  22.4270023   8.1423563  36.2678673  35.3147473
   9.0690873  36.0322943  35.3583433   8.1273993  37.0950673  34.8333503
  16.3768623  35.8104243  22.3121723  16.5520813  35.1241983  21.6682643
  15.6790193  36.3351293  21.9198393   5.3287173  18.9323423  35.0789353
   5.0471443  19.4357023  34.3150173   5.7106873  18.1345173  34.7131483
   4.2196273  36.1999083  19.8657033   4.9515093  35.9158363  19.3180923
   4.4789943  35.9612363  20.7556413   3.3811063  32.3163813  19.8703363
   2.7519943  32.7848913  20.4189193   3.4958893  31.4713033  20.3049553
  11.9302633  18.3477003  35.6569823  11.8168083  18.6671613  36.5521343
  12.7472373  18.7489513  35.3607103  14.7101123  35.4948533  35.1388513
  15.5026443  34.9997763  34.9314473  15.0034273  36.1738673  35.7464123
  10.8360783  26.3669473   6.0204563  10.7554833  25.4524083   5.7496273
  10.4225203  26.8636543   5.3144273   8.9678823  28.1448493   7.9013833
   8.1920923  27.6648933   8.1912403   9.6191753  27.4654143   7.7269993
   2.9844653  28.4568303   8.7789593   2.1529533  28.2017013   9.1786103
   3.5925633  28.5279073   9.5147513  12.9886253  32.5508683   6.6812963
  12.5267783  31.7795923   7.0100133  13.8011803  32.5774753   7.1865413
   2.9645913  32.4908393   8.9747613   3.2673953  31.6006133   8.7957833
   3.7089503  33.0478613   8.7469863   9.2149563  34.8366693   6.3016953
   8.5961003  35.2924193   5.7311393  10.0701343  34.9918153   5.9006653
   8.4087813  30.8205683   7.9083993   8.3396093  29.8795623   7.7473123
   9.1707673  30.9107093   8.4806563   9.4392983  23.6276063   8.1352923
   9.8157803  22.7547943   8.0226593   9.3412493  23.9634763   7.2443363
   3.5697993  22.0001693   3.5970363   3.6764743  22.9005423   3.9039123
   2.6590353  21.9519663   3.3065013  13.2217103  21.1226503   5.0681263
  14.0426723  20.6323073   5.1106743  13.2551183  21.7124163   5.8213103
   5.4105723  24.9688063   7.9295543   5.9183943  25.4669033   8.5700563
   5.9418963  24.1923263   7.7534903  17.5116653  23.1393253  11.6324893
  16.8068823  23.5274963  11.1140003  17.7774573  23.8343543  12.2345823
   3.6941823  19.6086623  12.1958963   3.6960263  20.1259013  11.3904863
   2.8646133  19.1316803  12.1728893  10.0812913  29.7205933   3.6948863
   9.4630183  30.1855383   3.1311583  10.5936163  30.4133413   4.1118373
   4.9444673  29.2481803  10.3732463   4.6114053  29.8750723  11.0153533
   5.1211353  29.7743683   9.5934133  13.4578583  23.0626883   7.8408803
  12.7534153  23.3511773   8.4211913  13.8190743  23.8726993   7.4808363
   3.3757153  21.3196583  10.2029413   3.7173963  22.1638633   9.9083283
   2.4372963  21.4680323  10.3194753   4.1563773  31.2162603  12.1881643
   4.7737773  31.8913683  11.9066093   3.2956893  31.6250583  12.0969143
  15.0741363  32.6802013  10.1036283  14.3904883  33.3501123  10.0952953
  15.6135653  32.8782663   9.3381143  16.5265503  22.5081673   8.2318013
  15.5790413  22.5420653   8.3633443  16.8515493  23.3220623   8.6167373
   7.0585043  18.8078853   6.5274003   7.3660023  18.2525743   5.8109503
   6.1285743  18.9423313   6.3446993  12.6100103  34.5246143   8.8181463
  12.6227263  34.1208433   7.9503723  12.0575323  35.2993433   8.7142893
  13.9045523  31.2462363   3.9071633  13.7941853  30.3036693   4.0321053
  13.9013773  31.6078003   4.7934393  12.0085543  29.4275983  10.1464073
  12.4254333  29.2136093   9.3117533  12.7325363  29.6848773  10.7172693
   9.4465803  26.8727683   3.2634123   8.5195083  26.8065063   3.4922593
   9.5990623  27.8107813   3.1489363  15.9547643  27.8263203  10.2380313
  15.1266273  27.8956293   9.7630443  16.5498123  28.4117513   9.7696143
  13.4763093  28.4347983   3.7669373  12.8575513  28.0967533   3.1195673
  13.4587543  27.7907743   4.4748563  12.9189653  24.6132523  11.1835183
  12.5060833  25.4386233  11.4375173  12.1865603  24.0277563  10.9911543
   5.0522443  27.3992423   6.0453853   4.6479443  26.6869673   5.5499753
   5.1385563  27.0545663   6.9341893   5.5204143  31.0859983   8.2093063
   5.2232433  30.4805453   7.5300843   6.4703963  31.1237293   8.0982423
   3.7651063  24.1735633   9.8252893   4.3165653  24.2830973   9.0506143
   4.2794573  24.5473233  10.5408123  13.6089753  34.6591853  11.8716163
  13.1320313  35.4664043  11.6788773  12.9251543  34.0070183  12.0242373
   4.6122573  30.8241673  14.8600863   3.7151103  31.0481643  15.1074263
   4.6375443  30.9476613  13.9112263   3.4393793  27.6954993  13.4358233
   3.3001563  28.5677793  13.8045633   2.5575153  27.3527803  13.2906173
   9.7623173  32.6130863   4.7423363  10.2019083  33.3555193   4.3278753
   9.7010063  32.8557433   5.6662323   5.2374143  33.6376693  15.6443383
   5.2089573  34.0419643  14.7771813   5.0739113  32.7087053  15.4814983
  17.1888963  34.4203793  16.9407553  17.6648683  34.8986683  17.6196633
  17.8096123  34.3521283  16.2153053  16.5922213  31.6116643  14.1007563
  16.7185273  31.3728523  13.1824743  16.6343593  30.7801183  14.5729643
  10.4538953  35.3144643  12.6702373  10.9683623  35.2252653  13.4724803
   9.6108033  35.6604343  12.9630283   4.9081733  35.3798513   3.8757993
   4.7324213  34.4634053   3.6625793   4.0537473  35.7385803   4.1155793
  11.6969413  34.7350253   4.7332863  12.1526363  33.9539633   5.0471483
  12.0361933  35.4457073   5.2774043  16.4446223  23.6649103  15.0657303
  15.8290493  24.1728773  14.5372763  16.1242643  22.7647433  15.0083243
   4.2190733  19.6372473   6.9284173   3.7758883  20.4182013   6.5968693
   4.7775723  19.9602363   7.6355113   8.5060543  22.5040993  12.5319493
   8.0439913  22.7124013  13.3439433   8.1038653  21.6900343  12.2290163
  13.5065053  23.7249943  13.6616153  12.6558643  23.4255693  13.9825223
  13.3466843  23.9691953  12.7499973  10.6014763  25.2251693  15.7614943
  10.9268173  24.3915443  15.4217173  11.3895093  25.7480213  15.9093273
   6.2566633  20.1819803   8.7873773   6.5538963  21.0882633   8.7065793
   6.8052193  19.6938583   8.1733343   4.0104953  24.7606043   4.6565423
   3.7845873  24.5443213   5.5612043   3.2297483  25.1934503   4.3111393
  11.2402713  24.7669413   3.2556073  10.6411603  25.4905213   3.0719693
  11.7882323  24.7046193   2.4732523   6.4504163  25.6591623  15.3225693
   6.3547763  24.7186353  15.1726093   7.2936143  25.8806693  14.9273763
   9.8467583  23.4032953   5.2859353  10.2397153  23.7205153   4.4728043
  10.2084433  22.5244833   5.4003873   8.1559753  22.1540263  16.5456213
   7.4658073  21.9612463  17.1802303   8.8992053  22.4374903  17.0780513
  10.4322723  25.9938703   9.3810133   9.7003843  26.5025513   9.7300233
  10.0347063  25.1768683   9.0798913   6.8700113  22.6692903   7.7862623
   6.8736173  22.2282853   6.9367163   7.7651233  22.9910233   7.8934443
   2.7202493  22.5519393   6.7456833   2.3802543  23.0294623   7.5023883
   1.9579813  22.0984513   6.3857933  10.8948633  21.4472383   8.7933073
  10.9121373  21.8981033   9.6374923  10.6464213  20.5478023   9.0066513
  14.3219383  18.8604563  14.6319453  14.6465153  18.1294223  15.1577433
  14.3575893  18.5418203  13.7300443   7.1708083  26.7294683   9.5328033
   7.5378213  26.2553253  10.2789373   6.9813143  27.6036253   9.8736373
   4.9607453  25.7703323  11.8512243   4.6564523  26.6495303  12.0762603
   5.9153913  25.8303113  11.8869683   3.4889243  29.9764313   2.4479093
   2.7151503  29.4361933   2.2877813   4.2183873  29.4570923   2.1096853
  14.2477223  28.9729673   8.2405483  14.9676343  29.4684963   7.8501593
  14.0459043  28.2947563   7.5959353   9.7087163  20.3667633   2.3834873
   8.8951773  19.8680803   2.3080183   9.5149113  21.2065883   1.9671223
   9.6296023  29.0438733  14.1274483   9.5633333  28.1234403  13.8732073
   9.0001163  29.1414173  14.8419123   3.5326643  29.6444693   6.0857903
   4.0505313  28.8412953   6.0314793   3.0810663  29.5823833   6.9274733
   4.2184303  27.0690303  15.8823153   3.9184443  27.2147483  14.9850973
   4.9895543  26.5095593  15.7896543   9.5612753  31.8659303  13.8778283
   9.5757293  30.9340263  13.6597193   8.8537853  31.9519063  14.5168053
  15.7723963  28.5066643  13.2246863  15.0472153  29.0995423  13.0276253
  16.2999423  28.4990183  12.4260233  15.7237073  32.9041383   2.8759023
  15.0813233  32.2497003   3.1502743  15.3367733  33.3096473   2.0999693
  11.3023553  30.2326813   6.7230713  11.6547373  29.6354943   6.0632083
  10.4185883  29.9071043   6.8938963   7.3886833  30.9924503   4.1301123
   8.0757963  31.5393713   4.5108713   6.6019253  31.5365233   4.1650733
   6.6914043  27.9970533   3.7426483   7.1476823  28.8075783   3.9686673
   6.3402253  27.6793673   4.5744973   8.9946653  33.5076873  10.9718783
   9.6388873  33.7136253  11.6492203   9.3576093  32.7465273  10.5189633
   2.5925823  18.3408183   4.2149003   2.4640453  18.3326083   5.1633923
   1.7687843  18.6791273   3.8640013  10.2678733  31.5109223   9.6896233
  10.9100963  30.8102383   9.8028403  10.7928083  32.2907663   9.5093123
  12.0416353  32.3104123  12.8932293  12.3772593  32.8970813  13.5710213
  11.1216693  32.1796833  13.1230083   7.8704933  32.3595453  16.0620353
   7.5501803  31.6404693  16.6066043   7.1963293  33.0350523  16.1356413
  11.0858533  22.5921613  11.4257153  11.4539353  21.7716823  11.7536723
  10.2256733  22.6523503  11.8412803   6.4204593  23.8264503   3.6502593
   5.7120743  24.2950843   4.0916203   6.7049073  23.1686513   4.2847783
   8.0460523  25.2461203  11.6495123   8.5445773  25.7207023  12.3146973
   8.1883473  24.3224723  11.8565153  10.4520023  20.5515163   5.0898383
  10.3287803  20.5701293   4.1407893  11.4004583  20.5994103   5.2096783
   7.5396813  35.7870463   4.3626363   7.7938313  35.7491853   3.4405733
   6.5909293  35.6603793   4.3554613  15.2527383  21.4629163  12.4923513
  14.7500983  22.2034563  12.8317323  16.0684043  21.8513163  12.1760303
  13.5449393  26.7062343   5.9384873  12.6039533  26.7212573   6.1132563
  13.8593463  25.9198303   6.3845173  15.5474973  33.8771193   7.6139133
  15.6722393  34.7002363   8.0862943  16.4140533  33.6661923   7.2663283
   3.0192503  35.9702403   7.2856263   3.7554983  35.4217863   7.5564833
   3.4033423  36.8358413   7.1462253   2.0250783  35.1548473  16.4741843
   2.8263513  35.4760523  16.8877243   1.5102603  34.7944053  17.1961753
  10.8615413  31.2628343  16.4217253  10.2553573  31.2859943  15.6813003
  10.5569523  30.5311383  16.9584503  12.2915783  34.9908633  15.0326663
  13.2437533  34.9066653  14.9826903  12.1444003  35.6550343  15.7060453
   6.7986533  29.0492923  14.9513413   6.0332203  29.6177923  14.8668083
   6.9802493  28.7569133  14.0581643  13.9409883  30.7798253  15.5088433
  14.6819353  31.1174013  15.0055893  13.1782563  30.9490313  14.9558203
   1.7771673  25.7851523  16.3127963   1.8177013  25.4865393  17.2213193
   2.6317173  26.1859133  16.1535483   3.7177483  24.3643623  14.2802453
   3.1873943  23.8734573  13.6525793   4.3865553  24.7927823  13.7460383
  12.6155543  28.8313083  14.0443643  13.0296563  28.9858163  14.8934063
  11.6806543  28.9568303  14.2069423  13.0877713  26.1709243  16.0482793
  13.6698483  25.4161563  15.9603273  13.2639483  26.7016683  15.2714273
   4.2049783  21.3305993  14.3599743   4.1106653  20.7126743  13.6350613
   3.6247173  22.0572283  14.1329653   6.9711223  19.8879233  11.3927133
   6.5228523  19.9103493  10.5472683   6.3376423  19.4898253  11.9897433
   7.3770773  28.7833563  12.0139573   7.7958883  29.6266293  11.8415813
   6.4579403  28.9205603  11.7846353   9.7134673  26.5149743  13.3977413
   9.8330883  25.9190883  14.1372253  10.5728673  26.5519433  12.9778713
  12.0522573  27.0686933  11.9739923  11.5257793  27.5929553  11.3705063
  12.3953913  27.7014323  12.6049653   5.2278193  35.0886573  13.1297303
   4.6899283  35.8132633  12.8106003   5.4812153  34.6116913  12.3394643
   6.4803443  23.0571093  14.6553233   7.0703133  22.7486943  15.3431053
   5.6623683  22.5850843  14.8113133  11.2996873  22.6736903  14.8886253
  10.6112393  22.0118443  14.8236243  12.0202893  22.2275173  15.3334713
   8.0840403  36.3237783  13.3883953   8.0099103  37.2272923  13.6956323
   7.1819243  36.0049683  13.3606023   4.0829613  31.9821383   4.3519543
   3.7825153  31.8586353   5.2523453   3.9767103  31.1229973   3.9435273
  15.6120083  34.0199963  13.7176513  15.0122073  34.0792523  12.9740433
  15.7413983  33.0804943  13.8473363  17.3137963  29.3615363   6.4022353
  17.6846793  28.5782683   5.9958323  17.9539893  30.0504463   6.2239653
  14.2971723  30.7451943  11.8152673  13.4831563  31.1749103  12.0778463
  14.7045923  31.3570353  11.2021723  16.2562503  26.7368623   3.7082373
  15.8806103  25.9696553   3.2763663  15.5265623  27.1191323   4.1957303
  15.6462123  25.8840143  13.3421893  15.4148213  25.6552893  12.4419843
  15.9066673  26.8039693  13.2966783  14.0850193  21.1096573  16.1201593
  14.9620373  21.1179973  16.5035593  14.0971033  20.3727413  15.5093943
  15.5313463  24.9626113   7.0089613  16.0550943  24.4688763   6.3779783
  16.1172883  25.0976473   7.7537183  15.7103183  25.0465983  10.5309163
  14.7605893  25.0129523  10.6454153  15.8916193  25.9566093  10.2958933
  15.0213433  24.2199463   2.9482023  15.5172553  23.9870333   3.7330903
  14.8229503  23.3811303   2.5319663  16.4500593  22.8560413   5.4819703
  16.3399873  22.7016453   6.4201973  17.2108183  22.3281353   5.2395113
  14.7966313  18.7954543  11.9402703  15.4338533  19.4088683  12.3061893
  14.9441203  18.8315203  10.9951933  14.3547773  35.4970543   5.3420943
  14.9506843  35.1755113   4.6655363  14.6125923  35.0242363   6.1334213
   2.2610343  31.9288453  15.4911573   2.2179973  31.5581363  16.3726033
   2.3921353  32.8666023  15.6313393   5.9616373  33.4848043  11.0921293
   5.7207733  33.7522603  10.2051813   6.9019013  33.6553773  11.1472153
   8.1670793  19.9480733  14.8477803   8.1059683  20.5402563  15.5973213
   9.1071173  19.8406693  14.7028063  10.8045353  19.6050793  14.4870093
  11.4185763  19.9230083  13.8251173  11.3494913  19.1199383  15.1065953
  17.2220533  35.5042423  11.8931933  16.7278813  35.9011293  11.1759063
  16.6133823  34.8791633  12.2869213   2.0998373  34.8750703  12.6109353
   1.5058693  34.7435403  13.3499393   2.0922213  34.0388843  12.1451453
  11.5453393  18.1682933  10.8139383  10.6713233  18.5018043  10.6112313
  11.4364143  17.6956113  11.6391253  12.4525373  20.3753803  12.1981103
  12.1238733  19.5605563  11.8182833  13.4007673  20.3323613  12.0746793
  14.9059983  36.1465843   9.1718673  14.4462953  36.8981653   8.7976693
  14.2772443  35.4272313   9.1133473   5.3355703  34.4554083   8.3466803
   5.8520723  33.8441443   7.8215063   5.9853083  34.9582863   8.8377813
   8.0751203  35.3462573   9.1735783   8.3629013  35.0916873   8.2968793
   8.5874423  34.7939933   9.7641353   9.2928213  19.0852773   9.7532293
   8.5100003  19.5598273  10.0329053   8.9991143  18.1807603   9.6445473
  13.8449283  19.7875873   7.7981383  14.2857373  19.7320973   6.9502983
  13.5756873  20.7033883   7.8691563  15.7087853  19.4191113   5.8090203
  15.6476253  18.4752333   5.6621223  16.4879883  19.5271203   6.3543663
   7.1782433  21.5039523   5.2648323   6.3656943  21.1296413   4.9244203
   7.6824073  20.7484603   5.5669513  11.6807413  18.1681973   6.5031393
  12.2836783  18.7402183   6.9779913  10.9400403  18.7321413   6.2805293
  14.8242013  18.5703533   1.7771673  15.0192643  19.4686983   2.0439103
  14.0371883  18.3390613   2.2704623   5.2031613  19.6539443   3.8693373
   4.5734353  18.9526753   4.0363503   4.6636753  20.4143573   3.6526533
   8.1423563  36.2678673  16.5403983   9.0690873  36.0322943  16.5839943
   8.1273993  37.0950673  16.0590013  16.3768623  35.8104243   3.5378233
  16.5520813  35.1241983   2.8939153  15.6790193  36.3351293   3.1454903
   5.3287173  18.9323423  16.3045863   5.0471443  19.4357023  15.5406683
   5.7106873  18.1345173  15.9387993  11.9302633  18.3477003  16.8826333
  11.8168083  18.6671613  17.7777853  12.7472373  18.7489513  16.5863613
  14.7101123  35.4948533  16.3645023  15.5026443  34.9997763  16.1570983
  15.0034273  36.1738673  16.9720633  10.8360783   7.5925983  62.3435033
  10.7554833   6.6780593  62.0726743  10.4225203   8.0893053  61.6374743
   8.9678823   9.3705003  64.2244303   8.1920923   8.8905443  64.5142873
   9.6191753   8.6910653  64.0500463   2.9844653   9.6824813  65.1020063
   2.1529533   9.4273523  65.5016573   3.5925633   9.7535583  65.8377983
  12.9886253  13.7765193  63.0043433  12.5267783  13.0052433  63.3330603
  13.8011803  13.8031263  63.5095883   2.9645913  13.7164903  65.2978083
   3.2673953  12.8262643  65.1188303   3.7089503  14.2735123  65.0700333
   9.2149563  16.0623203  62.6247423   8.5961003  16.5180703  62.0541863
  10.0701343  16.2174663  62.2237123   8.4087813  12.0462193  64.2314463
   8.3396093  11.1052133  64.0703593   9.1707673  12.1363603  64.8037033
   9.4392983   4.8532573  64.4583393   9.8157803   3.9804453  64.3457063
   9.3412493   5.1891273  63.5673833   3.5697993   3.2258203  59.9200833
   3.6764743   4.1261933  60.2269593   2.6590353   3.1776173  59.6295483
  13.2217103   2.3483013  61.3911733  14.0426723   1.8579583  61.4337213
  13.2551183   2.9380673  62.1443573   5.4105723   6.1944573  64.2526013
   5.9183943   6.6925543  64.8931033   5.9418963   5.4179773  64.0765373
  17.5116653   4.3649763  67.9555363  16.8068823   4.7531473  67.4370473
  17.7774573   5.0600053  68.5576293  10.0812913  10.9462443  60.0179333
   9.4630183  11.4111893  59.4542053  10.5936163  11.6389923  60.4348843
   4.9444673  10.4738313  66.6962933   4.6114053  11.1007233  67.3384003
   5.1211353  11.0000193  65.9164603  13.4578583   4.2883393  64.1639273
  12.7534153   4.5768283  64.7442383  13.8190743   5.0983503  63.8038833
   3.3757153   2.5453093  66.5259883   3.7173963   3.3895143  66.2313753
   2.4372963   2.6936833  66.6425223   4.1563773  12.4419113  68.5112113
   4.7737773  13.1170193  68.2296563   3.2956893  12.8507093  68.4199613
  15.0741363  13.9058523  66.4266753  14.3904883  14.5757633  66.4183423
  15.6135653  14.1039173  65.6611613  16.5265503   3.7338183  64.5548483
  15.5790413   3.7677163  64.6863913  16.8515493   4.5477133  64.9397843
  12.6100103  15.7502653  65.1411933  12.6227263  15.3464943  64.2734193
  12.0575323  16.5249943  65.0373363  13.9045523  12.4718873  60.2302103
  13.7941853  11.5293203  60.3551523  13.9013773  12.8334513  61.1164863
  12.0085543  10.6532493  66.4694543  12.4254333  10.4392603  65.6348003
  12.7325363  10.9105283  67.0403163   9.4465803   8.0984193  59.5864593
   8.5195083   8.0321573  59.8153063   9.5990623   9.0364323  59.4719833
   9.4334883   4.3701193  56.5831753   8.4938553   4.5315153  56.6684213
   9.7518143   5.0886873  56.0367743  15.9547643   9.0519713  66.5610783
  15.1266273   9.1212803  66.0860913  16.5498123   9.6374023  66.0926613
  13.4763093   9.6604493  60.0899843  12.8575513   9.3224043  59.4426143
  13.4587543   9.0164253  60.7979033  12.9189653   5.8389033  67.5065653
  12.5060833   6.6642743  67.7605643  12.1865603   5.2534073  67.3142013
   5.0522443   8.6248933  62.3684323   4.6479443   7.9126183  61.8730223
   5.1385563   8.2802173  63.2572363   5.5204143  12.3116493  64.5323533
   5.2232433  11.7061963  63.8531313   6.4703963  12.3493803  64.4212893
   3.7651063   5.3992143  66.1483363   4.3165653   5.5087483  65.3736613
   4.2794573   5.7729743  66.8638593  13.6089753  15.8848363  68.1946633
  13.1320313  16.6920553  68.0019243  12.9251543  15.2326693  68.3472843
  11.6527793   8.8991303  57.0972593  12.0921073   8.0613733  56.9510413
  12.3656213   9.5320703  57.1836733   9.7623173  13.8387373  61.0653833
  10.2019083  14.5811703  60.6509223   9.7010063  14.0813943  61.9892793
  10.4538953  16.5401153  68.9932843  10.9683623  16.4509163  69.7955273
   9.6108033  16.8860853  69.2860753  12.4293353  16.8256493  58.4216843
  12.2694493  16.5359433  59.3198673  12.2640063  16.0496623  57.8862073
   4.9081733  16.6055023  60.1988463   4.7324213  15.6890563  59.9856263
   4.0537473  16.9642313  60.4386263  12.1319483  14.3344053  56.9814843
  11.4384643  14.3321343  56.3217123  12.8742343  13.9103373  56.5509013
  11.6969413  15.9606763  61.0563333  12.1526363  15.1796143  61.3701953
  12.0361933  16.6713583  61.6004513   8.5060543   3.7297503  68.8549963
   8.0439913   3.9380523  69.6669903   8.1038653   2.9156853  68.5520633
   4.0104953   5.9862553  60.9795893   3.7845873   5.7699723  61.8842513
   3.2297483   6.4191013  60.6341863  11.2402713   5.9925923  59.5786543
  10.6411603   6.7161723  59.3950163  11.7882323   5.9302703  58.7962993
   9.8467583   4.6289463  61.6089823  10.2397153   4.9461663  60.7958513
  10.2084433   3.7501343  61.7234343  10.4322723   7.2195213  65.7040603
   9.7003843   7.7282023  66.0530703  10.0347063   6.4025193  65.4029383
   6.8700113   3.8949413  64.1093093   6.8736173   3.4539363  63.2597633
   7.7651233   4.2166743  64.2164913   2.7202493   3.7775903  63.0687303
   2.3802543   4.2551133  63.8254353   1.9579813   3.3241023  62.7088403
   6.9320263   4.8961493  57.0999853   7.0533083   4.8547973  58.0485673
   6.5468773   5.7585643  56.9446583  10.8948633   2.6728893  65.1163543
  10.9121373   3.1237543  65.9605393  10.6464213   1.7734533  65.3296983
   5.9441763   7.2062633  56.4983153   5.3758663   6.7580883  55.8719063
   6.6530763   7.5655413  55.9648303   7.1708083   7.9551193  65.8558503
   7.5378213   7.4809763  66.6019843   6.9813143   8.8292763  66.1966843
   4.9607453   6.9959833  68.1742713   4.6564523   7.8751813  68.3993073
   5.9153913   7.0559623  68.2100153   3.4889243  11.2020823  58.7709563
   2.7151503  10.6618443  58.6108283   4.2183873  10.6827433  58.4327323
  14.2477223  10.1986183  64.5635953  14.9676343  10.6941473  64.1732063
  14.0459043   9.5204073  63.9189823  12.4235553   5.9643793  57.0027503
  13.3115173   6.2761023  56.8278843  12.3940643   5.0916043  56.6108083
   3.5326643  10.8701203  62.4088373   4.0505313  10.0669463  62.3545263
   3.0810663  10.8080343  63.2505203   8.4196143  12.1367483  57.6815673
   8.7611843  12.8809713  57.1858993   7.5908853  12.4498603  58.0440503
  14.6949823   7.2755633  56.4707363  14.6113543   7.7069853  55.6203803
  15.4144013   7.7353983  56.9034183  15.7723963   9.7323153  69.5477333
  15.0472153  10.3251933  69.3506723  16.2999423   9.7246693  68.7490703
  15.7237073  14.1297893  59.1989493  15.0813233  13.4753513  59.4733213
  15.3367733  14.5352983  58.4230163  11.3023553  11.4583323  63.0461183
  11.6547373  10.8611453  62.3862553  10.4185883  11.1327553  63.2169433
   7.3886833  12.2181013  60.4531593   8.0757963  12.7650223  60.8339183
   6.6019253  12.7621743  60.4881203   6.6914043   9.2227043  60.0656953
   7.1476823  10.0332293  60.2917143   6.3402253   8.9050183  60.8975443
   8.9946653  14.7333383  67.2949253   9.6388873  14.9392763  67.9722673
   9.3576093  13.9721783  66.8420103  10.2678733  12.7365733  66.0126703
  10.9100963  12.0358893  66.1258873  10.7928083  13.5164173  65.8323593
  14.1134453  13.0214353  55.7365843  13.8872033  12.3044793  56.3290483
  13.7230653  12.7726793  54.8987593  13.6950703  10.9386293  57.3980003
  13.4072403  11.3998983  58.1857883  14.4902873  10.4784063  57.6664223
   5.9119103  14.4312413  57.3283973   5.9029203  15.1642103  56.7128483
   4.9917463  14.1843993  57.4210933  11.0858533   3.8178123  67.7487623
  11.4539353   2.9973333  68.0767193  10.2256733   3.8780013  68.1643273
  14.4520563   2.7735063  58.5575183  13.8233723   2.8780733  57.8433413
  13.9572483   2.9931843  59.3469063   8.8978703  14.4940653  55.9909163
   8.9990683  14.2904643  55.0611143   7.9980443  14.2398933  56.1956943
   6.4204593   5.0521013  59.9733063   5.7120743   5.5207353  60.4146673
   6.7049073   4.3943023  60.6078253   8.0460523   6.4717713  67.9725593
   8.5445773   6.9463533  68.6377443   8.1883473   5.5481233  68.1795623
  10.4520023   1.7771673  61.4128853  10.3287803   1.7957803  60.4638363
  11.4004583   1.8250613  61.5327253   7.5396813  17.0126973  60.6856833
   7.7938313  16.9748363  59.7636203   6.5909293  16.8860303  60.6785083
   4.6239613   3.3606093  57.3483773   5.4730143   3.7976243  57.2823963
   4.2570883   3.6726353  58.1755833  15.2527383   2.6885673  68.8153983
  14.7500983   3.4291073  69.1547793  16.0684043   3.0769673  68.4990773
  13.5449393   7.9318853  62.2615343  12.6039533   7.9469083  62.4363033
  13.8593463   7.1454813  62.7075643   3.5231033   9.6138453  55.8219303
   4.2894303   9.5019813  56.3844733   3.6005723   8.9176423  55.1696073
   2.2177793   7.0463523  56.5052193   2.2981383   6.0991033  56.6169593
   3.1097543   7.3770403  56.6112853  15.5474973  15.1027703  63.9369603
  15.6722393  15.9258873  64.4093413  16.4140533  14.8918433  63.5893753
   3.0192503  17.1958913  63.6086733   3.7554983  16.6474373  63.8795303
   3.4033423  18.0614923  63.4692723   6.1294813  16.3689223  55.4312303
   6.9223423  16.6578053  54.9794093   5.6099163  15.9381393  54.7524783
  15.1824983  15.5959353  56.8549043  14.8966493  15.1824493  56.0403223
  14.9844533  16.5247063  56.7349563   6.6472213  11.5892633  55.2954653
   6.5422853  10.9744983  56.0216033   6.4796433  11.0658523  54.5117663
   9.8874943  10.6512663  55.8996643   9.3385043  11.0981963  56.5439383
  10.5094203  10.1461913  56.4234313   5.5550063   9.6103583  57.7961943
   5.9766483   9.4443453  58.6393333   5.6800903   8.8003813  57.3017083
   8.0677703   8.6341193  55.0439043   8.5883363   7.9190213  54.6780193
   8.7146103   9.2727063  55.3439553   7.3770773  10.0090073  68.3370043
   7.7958883  10.8522803  68.1646283   6.4579403  10.1462113  68.1076823
  12.0522573   8.2943443  68.2970393  11.5257793   8.8186063  67.6935533
  12.3953913   8.9270833  68.9280123   4.4508963   5.6836813  54.7420103
   4.2498023   4.8204173  55.1033443   4.2801013   5.5970173  53.8041703
   5.2278193  16.3143083  69.4527773   4.6899283  17.0389143  69.1336473
   5.4812153  15.8373423  68.6625113   3.2491763   2.7837433  54.7297983
   3.5517663   2.7904863  53.8217133   3.9886353   2.4335293  55.2265643
   8.6325733  16.7152803  57.3340783   9.5276523  17.0537773  57.3559543
   8.6643363  15.9932213  56.7065063   2.2721893  12.0879853  55.5627783
   2.7096763  12.6309523  56.2185363   2.7569623  11.2626803  55.5724123
   4.0829613  13.2077893  60.6750013   3.7825153  13.0842863  61.5753923
   3.9767103  12.3486483  60.2665743  16.8521533  12.9874293  55.3776693
  16.0214493  13.0550943  55.8483923  17.0293363  13.8778413  55.0743553
  16.3077993   9.7321773  57.8810893  17.0696903  10.3018423  57.9870583
  16.3232363   9.1648973  58.6519203  17.3137963  10.5871873  62.7252823
  17.6846793   9.8039193  62.3188793  17.9539893  11.2760973  62.5470123
  14.2971723  11.9708453  68.1383143  13.4831563  12.4005613  68.4008933
  14.7045923  12.5826863  67.5252193  16.3597163  10.0256143  55.0383413
  16.6346003  10.9335023  54.9102633  16.1707903   9.9618673  55.9745403
  12.7572773   3.0500993  56.3337043  13.1757653   2.8631973  55.4933703
  12.4508833   2.1980043  56.6439973  16.2562503   7.9625133  60.0312843
  15.8806103   7.1953063  59.5994133  15.5265623   8.3447833  60.5187773
  15.6462123   7.1096653  69.6652363  15.4148213   6.8809403  68.7650313
  15.9066673   8.0296203  69.6197253  15.5313463   6.1882623  63.3320083
  16.0550943   5.6945273  62.7010253  16.1172883   6.3232983  64.0767653
  15.7103183   6.2722493  66.8539633  14.7605893   6.2386033  66.9684623
  15.8916193   7.1822603  66.6189403  15.0213433   5.4455973  59.2712493
  15.5172553   5.2126843  60.0561373  14.8229503   4.6067813  58.8550133
  16.4500593   4.0816923  61.8050173  16.3399873   3.9272963  62.7432443
  17.2108183   3.5537863  61.5625583  17.3390863   1.9124843  55.0456313
  18.2640173   1.7806023  54.8374603  17.3166653   1.9917663  55.9992763
  17.4129353   2.6835503  57.6713023  16.6180853   2.6180623  58.2005933
  17.6172633   3.6186143  57.6598373  14.3547773  16.7227053  61.6651413
  14.9506843  16.4011623  60.9885833  14.6125923  16.2498873  62.4564683
   5.9616373  14.7104553  67.4151763   5.7207733  14.9779113  66.5282283
   6.9019013  14.8810283  67.4702623  17.2220533  16.7298933  68.2162403
  16.7278813  17.1267803  67.4989533  16.6133823  16.1048143  68.6099683
   2.0998373  16.1007213  68.9339823   1.5058693  15.9691913  69.6729863
   2.0922213  15.2645353  68.4681923  14.9059983  17.3722353  65.4949143
  14.4462953  18.1238163  65.1207163  14.2772443  16.6528823  65.4363943
   5.3355703  15.6810593  64.6697273   5.8520723  15.0697953  64.1445533
   5.9853083  16.1839373  65.1608283   8.0751203  16.5719083  65.4966253
   8.3629013  16.3173383  64.6199263   8.5874423  16.0196443  66.0871823
   7.1782433   2.7296033  61.5878793   6.3656943   2.3552923  61.2474673
   7.6824073   1.9741113  61.8899983  16.3768623  17.0360753  59.8608703
  16.5520813  16.3498493  59.2169623  15.6790193  17.5607803  59.4685373
   4.2196273  17.4255593  57.4144013   4.9515093  17.1414873  56.8667903
   4.4789943  17.1868873  58.3043393   3.3811063  13.5420323  57.4190343
   2.7519943  14.0105423  57.9676173   3.4958893  12.6969543  57.8536533
  10.8360783   7.5925983  43.5691543  10.7554833   6.6780593  43.2983253
  10.4225203   8.0893053  42.8631253   8.9678823   9.3705003  45.4500813
   8.1920923   8.8905443  45.7399383   9.6191753   8.6910653  45.2756973
   2.9844653   9.6824813  46.3276573   2.1529533   9.4273523  46.7273083
   3.5925633   9.7535583  47.0634493  12.9886253  13.7765193  44.2299943
  12.5267783  13.0052433  44.5587113  13.8011803  13.8031263  44.7352393
   2.9645913  13.7164903  46.5234593   3.2673953  12.8262643  46.3444813
   3.7089503  14.2735123  46.2956843   9.2149563  16.0623203  43.8503933
   8.5961003  16.5180703  43.2798373  10.0701343  16.2174663  43.4493633
   8.4087813  12.0462193  45.4570973   8.3396093  11.1052133  45.2960103
   9.1707673  12.1363603  46.0293543   9.4392983   4.8532573  45.6839903
   9.8157803   3.9804453  45.5713573   9.3412493   5.1891273  44.7930343
   3.5697993   3.2258203  41.1457343   3.6764743   4.1261933  41.4526103
   2.6590353   3.1776173  40.8551993  13.2217103   2.3483013  42.6168243
  14.0426723   1.8579583  42.6593723  13.2551183   2.9380673  43.3700083
   5.4105723   6.1944573  45.4782523   5.9183943   6.6925543  46.1187543
   5.9418963   5.4179773  45.3021883  17.5116653   4.3649763  49.1811873
  16.8068823   4.7531473  48.6626983  17.7774573   5.0600053  49.7832803
  10.0812913  10.9462443  41.2435843   9.4630183  11.4111893  40.6798563
  10.5936163  11.6389923  41.6605353   4.9444673  10.4738313  47.9219443
   4.6114053  11.1007233  48.5640513   5.1211353  11.0000193  47.1421113
  13.4578583   4.2883393  45.3895783  12.7534153   4.5768283  45.9698893
  13.8190743   5.0983503  45.0295343   3.3757153   2.5453093  47.7516393
   3.7173963   3.3895143  47.4570263   2.4372963   2.6936833  47.8681733
   4.1563773  12.4419113  49.7368623   4.7737773  13.1170193  49.4553073
   3.2956893  12.8507093  49.6456123  15.0741363  13.9058523  47.6523263
  14.3904883  14.5757633  47.6439933  15.6135653  14.1039173  46.8868123
  16.5265503   3.7338183  45.7804993  15.5790413   3.7677163  45.9120423
  16.8515493   4.5477133  46.1654353  12.6100103  15.7502653  46.3668443
  12.6227263  15.3464943  45.4990703  12.0575323  16.5249943  46.2629873
  13.9045523  12.4718873  41.4558613  13.7941853  11.5293203  41.5808033
  13.9013773  12.8334513  42.3421373  12.0085543  10.6532493  47.6951053
  12.4254333  10.4392603  46.8604513  12.7325363  10.9105283  48.2659673
   9.4465803   8.0984193  40.8121103   8.5195083   8.0321573  41.0409573
   9.5990623   9.0364323  40.6976343   9.4334883   4.3701193  37.8088263
   8.4938553   4.5315153  37.8940723   9.7518143   5.0886873  37.2624253
  15.9547643   9.0519713  47.7867293  15.1266273   9.1212803  47.3117423
  16.5498123   9.6374023  47.3183123  13.4763093   9.6604493  41.3156353
  12.8575513   9.3224043  40.6682653  13.4587543   9.0164253  42.0235543
  12.9189653   5.8389033  48.7322163  12.5060833   6.6642743  48.9862153
  12.1865603   5.2534073  48.5398523   5.0522443   8.6248933  43.5940833
   4.6479443   7.9126183  43.0986733   5.1385563   8.2802173  44.4828873
   5.5204143  12.3116493  45.7580043   5.2232433  11.7061963  45.0787823
   6.4703963  12.3493803  45.6469403   3.7651063   5.3992143  47.3739873
   4.3165653   5.5087483  46.5993123   4.2794573   5.7729743  48.0895103
  13.6089753  15.8848363  49.4203143  13.1320313  16.6920553  49.2275753
  12.9251543  15.2326693  49.5729353   4.6122573  12.0498183  52.4087843
   3.7151103  12.2738153  52.6561243   4.6375443  12.1733123  51.4599243
  11.6527793   8.8991303  38.3229103  12.0921073   8.0613733  38.1766923
  12.3656213   9.5320703  38.4093243   3.4393793   8.9211503  50.9845213
   3.3001563   9.7934303  51.3532613   2.5575153   8.5784313  50.8393153
   9.7623173  13.8387373  42.2910343  10.2019083  14.5811703  41.8765733
   9.7010063  14.0813943  43.2149303   5.2374143  14.8633203  53.1930363
   5.2089573  15.2676153  52.3258793   5.0739113  13.9343563  53.0301963
  17.1888963  15.6460303  54.4894533  17.6648683  16.1243193  55.1683613
  17.8096123  15.5777793  53.7640033  16.5922213  12.8373153  51.6494543
  16.7185273  12.5985033  50.7311723  16.6343593  12.0057693  52.1216623
  10.4538953  16.5401153  50.2189353  10.9683623  16.4509163  51.0211783
   9.6108033  16.8860853  50.5117263  12.4293353  16.8256493  39.6473353
  12.2694493  16.5359433  40.5455183  12.2640063  16.0496623  39.1118583
   4.9081733  16.6055023  41.4244973   4.7324213  15.6890563  41.2112773
   4.0537473  16.9642313  41.6642773  12.1319483  14.3344053  38.2071353
  11.4384643  14.3321343  37.5473633  12.8742343  13.9103373  37.7765523
  11.6969413  15.9606763  42.2819843  12.1526363  15.1796143  42.5958463
  12.0361933  16.6713583  42.8261023  16.4446223   4.8905613  52.6144283
  15.8290493   5.3985283  52.0859743  16.1242643   3.9903943  52.5570223
   8.5060543   3.7297503  50.0806473   8.0439913   3.9380523  50.8926413
   8.1038653   2.9156853  49.7777143  13.5065053   4.9506453  51.2103133
  12.6558643   4.6512203  51.5312203  13.3466843   5.1948463  50.2986953
  10.6014763   6.4508203  53.3101923  10.9268173   5.6171953  52.9704153
  11.3895093   6.9736723  53.4580253   4.0104953   5.9862553  42.2052403
   3.7845873   5.7699723  43.1099023   3.2297483   6.4191013  41.8598373
  11.2402713   5.9925923  40.8043053  10.6411603   6.7161723  40.6206673
  11.7882323   5.9302703  40.0219503   6.4504163   6.8848133  52.8712673
   6.3547763   5.9442863  52.7213073   7.2936143   7.1063203  52.4760743
   9.8467583   4.6289463  42.8346333  10.2397153   4.9461663  42.0215023
  10.2084433   3.7501343  42.9490853   8.1559753   3.3796773  54.0943193
   7.4658073   3.1868973  54.7289283   8.8992053   3.6631413  54.6267493
  10.4322723   7.2195213  46.9297113   9.7003843   7.7282023  47.2787213
  10.0347063   6.4025193  46.6285893   6.8700113   3.8949413  45.3349603
   6.8736173   3.4539363  44.4854143   7.7651233   4.2166743  45.4421423
   2.7202493   3.7775903  44.2943813   2.3802543   4.2551133  45.0510863
   1.9579813   3.3241023  43.9344913   6.9320263   4.8961493  38.3256363
   7.0533083   4.8547973  39.2742183   6.5468773   5.7585643  38.1703093
  10.8948633   2.6728893  46.3420053  10.9121373   3.1237543  47.1861903
  10.6464213   1.7734533  46.5553493   5.9441763   7.2062633  37.7239663
   5.3758663   6.7580883  37.0975573   6.6530763   7.5655413  37.1904813
   7.1708083   7.9551193  47.0815013   7.5378213   7.4809763  47.8276353
   6.9813143   8.8292763  47.4223353   4.9607453   6.9959833  49.3999223
   4.6564523   7.8751813  49.6249583   5.9153913   7.0559623  49.4356663
   3.4889243  11.2020823  39.9966073   2.7151503  10.6618443  39.8364793
   4.2183873  10.6827433  39.6583833  14.2477223  10.1986183  45.7892463
  14.9676343  10.6941473  45.3988573  14.0459043   9.5204073  45.1446333
   9.6296023  10.2695243  51.6761463   9.5633333   9.3490913  51.4219053
   9.0001163  10.3670683  52.3906103  12.4235553   5.9643793  38.2284013
  13.3115173   6.2761023  38.0535353  12.3940643   5.0916043  37.8364593
   3.5326643  10.8701203  43.6344883   4.0505313  10.0669463  43.5801773
   3.0810663  10.8080343  44.4761713   8.4196143  12.1367483  38.9072183
   8.7611843  12.8809713  38.4115503   7.5908853  12.4498603  39.2697013
   4.2184303   8.2946813  53.4310133   3.9184443   8.4403993  52.5337953
   4.9895543   7.7352103  53.3383523   9.5612753  13.0915813  51.4265263
   9.5757293  12.1596773  51.2084173   8.8537853  13.1775573  52.0655033
  14.6949823   7.2755633  37.6963873  14.6113543   7.7069853  36.8460313
  15.4144013   7.7353983  38.1290693  15.7723963   9.7323153  50.7733843
  15.0472153  10.3251933  50.5763233  16.2999423   9.7246693  49.9747213
  15.7237073  14.1297893  40.4246003  15.0813233  13.4753513  40.6989723
  15.3367733  14.5352983  39.6486673  11.3023553  11.4583323  44.2717693
  11.6547373  10.8611453  43.6119063  10.4185883  11.1327553  44.4425943
   7.3886833  12.2181013  41.6788103   8.0757963  12.7650223  42.0595693
   6.6019253  12.7621743  41.7137713   6.6914043   9.2227043  41.2913463
   7.1476823  10.0332293  41.5173653   6.3402253   8.9050183  42.1231953
   8.9946653  14.7333383  48.5205763   9.6388873  14.9392763  49.1979183
   9.3576093  13.9721783  48.0676613  10.2678733  12.7365733  47.2383213
  10.9100963  12.0358893  47.3515383  10.7928083  13.5164173  47.0580103
  14.1134453  13.0214353  36.9622353  13.8872033  12.3044793  37.5546993
  13.7230653  12.7726793  36.1244103  12.0416353  13.5360633  50.4419273
  12.3772593  14.1227323  51.1197193  11.1216693  13.4053343  50.6717063
  13.6950703  10.9386293  38.6236513  13.4072403  11.3998983  39.4114393
  14.4902873  10.4784063  38.8920733   7.8704933  13.5851963  53.6107333
   7.5501803  12.8661203  54.1553023   7.1963293  14.2607033  53.6843393
   5.9119103  14.4312413  38.5540483   5.9029203  15.1642103  37.9384993
   4.9917463  14.1843993  38.6467443  11.0858533   3.8178123  48.9744133
  11.4539353   2.9973333  49.3023703  10.2256733   3.8780013  49.3899783
  14.4520563   2.7735063  39.7831693  13.8233723   2.8780733  39.0689923
  13.9572483   2.9931843  40.5725573   8.8978703  14.4940653  37.2165673
   8.9990683  14.2904643  36.2867653   7.9980443  14.2398933  37.4213453
   6.4204593   5.0521013  41.1989573   5.7120743   5.5207353  41.6403183
   6.7049073   4.3943023  41.8334763   8.0460523   6.4717713  49.1982103
   8.5445773   6.9463533  49.8633953   8.1883473   5.5481233  49.4052133
  10.4520023   1.7771673  42.6385363  10.3287803   1.7957803  41.6894873
  11.4004583   1.8250613  42.7583763   7.5396813  17.0126973  41.9113343
   7.7938313  16.9748363  40.9892713   6.5909293  16.8860303  41.9041593
   4.6239613   3.3606093  38.5740283   5.4730143   3.7976243  38.5080473
   4.2570883   3.6726353  39.4012343  15.2527383   2.6885673  50.0410493
  14.7500983   3.4291073  50.3804303  16.0684043   3.0769673  49.7247283
  13.5449393   7.9318853  43.4871853  12.6039533   7.9469083  43.6619543
  13.8593463   7.1454813  43.9332153   3.5231033   9.6138453  37.0475813
   4.2894303   9.5019813  37.6101243   3.6005723   8.9176423  36.3952583
   2.2177793   7.0463523  37.7308703   2.2981383   6.0991033  37.8426103
   3.1097543   7.3770403  37.8369363  15.5474973  15.1027703  45.1626113
  15.6722393  15.9258873  45.6349923  16.4140533  14.8918433  44.8150263
   3.0192503  17.1958913  44.8343243   3.7554983  16.6474373  45.1051813
   3.4033423  18.0614923  44.6949233   2.0250783  16.3804983  54.0228823
   2.8263513  16.7017033  54.4364223   1.5102603  16.0200563  54.7448733
   6.1294813  16.3689223  36.6568813   6.9223423  16.6578053  36.2050603
   5.6099163  15.9381393  35.9781293  10.8615413  12.4884853  53.9704233
  10.2553573  12.5116453  53.2299983  10.5569523  11.7567893  54.5071483
  12.2915783  16.2165143  52.5813643  13.2437533  16.1323163  52.5313883
  12.1444003  16.8806853  53.2547433  15.1824983  15.5959353  38.0805553
  14.8966493  15.1824493  37.2659733  14.9844533  16.5247063  37.9606073
   6.6472213  11.5892633  36.5211163   6.5422853  10.9744983  37.2472543
   6.4796433  11.0658523  35.7374173   6.7986533  10.2749433  52.5000393
   6.0332203  10.8434433  52.4155063   6.9802493   9.9825643  51.6068623
   9.8874943  10.6512663  37.1253153   9.3385043  11.0981963  37.7695893
  10.5094203  10.1461913  37.6490823  13.9409883  12.0054763  53.0575413
  14.6819353  12.3430523  52.5542873  13.1782563  12.1746823  52.5045183
   1.7771673   7.0108033  53.8614943   1.8177013   6.7121903  54.7700173
   2.6317173   7.4115643  53.7022463   5.5550063   9.6103583  39.0218453
   5.9766483   9.4443453  39.8649843   5.6800903   8.8003813  38.5273593
   3.7177483   5.5900133  51.8289433   3.1873943   5.0991083  51.2012773
   4.3865553   6.0184333  51.2947363   8.0677703   8.6341193  36.2695553
   8.5883363   7.9190213  35.9036703   8.7146103   9.2727063  36.5696063
  12.6155543  10.0569593  51.5930623  13.0296563  10.2114673  52.4421043
  11.6806543  10.1824813  51.7556403  13.0877713   7.3965753  53.5969773
  13.6698483   6.6418073  53.5090253  13.2639483   7.9273193  52.8201253
   4.2049783   2.5562503  51.9086723   4.1106653   1.9383253  51.1837593
   3.6247173   3.2828793  51.6816633   7.3770773  10.0090073  49.5626553
   7.7958883  10.8522803  49.3902793   6.4579403  10.1462113  49.3333333
   9.7134673   7.7406253  50.9464393   9.8330883   7.1447393  51.6859233
  10.5728673   7.7775943  50.5265693  12.0522573   8.2943443  49.5226903
  11.5257793   8.8186063  48.9192043  12.3953913   8.9270833  50.1536633
   4.4508963   5.6836813  35.9676613   4.2498023   4.8204173  36.3289953
   4.2801013   5.5970173  35.0298213   5.2278193  16.3143083  50.6784283
   4.6899283  17.0389143  50.3592983   5.4812153  15.8373423  49.8881623
   6.4803443   4.2827603  52.2040213   7.0703133   3.9743453  52.8918033
   5.6623683   3.8107353  52.3600113  11.2996873   3.8993413  52.4373233
  10.6112393   3.2374953  52.3723223  12.0202893   3.4531683  52.8821693
   3.2491763   2.7837433  35.9554493   3.5517663   2.7904863  35.0473643
   3.9886353   2.4335293  36.4522153   8.0840403  17.5494293  50.9370933
   8.0099103  18.4529433  51.2443303   7.1819243  17.2306193  50.9093003
   8.6325733  16.7152803  38.5597293   9.5276523  17.0537773  38.5816053
   8.6643363  15.9932213  37.9321573   2.2721893  12.0879853  36.7884293
   2.7096763  12.6309523  37.4441873   2.7569623  11.2626803  36.7980633
   4.0829613  13.2077893  41.9006523   3.7825153  13.0842863  42.8010433
   3.9767103  12.3486483  41.4922253  15.6120083  15.2456473  51.2663493
  15.0122073  15.3049033  50.5227413  15.7413983  14.3061453  51.3960343
  16.8521533  12.9874293  36.6033203  16.0214493  13.0550943  37.0740433
  17.0293363  13.8778413  36.3000063  16.3077993   9.7321773  39.1067403
  17.0696903  10.3018423  39.2127093  16.3232363   9.1648973  39.8775713
  17.3137963  10.5871873  43.9509333  17.6846793   9.8039193  43.5445303
  17.9539893  11.2760973  43.7726633  14.2971723  11.9708453  49.3639653
  13.4831563  12.4005613  49.6265443  14.7045923  12.5826863  48.7508703
  16.3597163  10.0256143  36.2639923  16.6346003  10.9335023  36.1359143
  16.1707903   9.9618673  37.2001913  12.7572773   3.0500993  37.5593553
  13.1757653   2.8631973  36.7190213  12.4508833   2.1980043  37.8696483
  16.2562503   7.9625133  41.2569353  15.8806103   7.1953063  40.8250643
  15.5265623   8.3447833  41.7444283  15.6462123   7.1096653  50.8908873
  15.4148213   6.8809403  49.9906823  15.9066673   8.0296203  50.8453763
  15.5313463   6.1882623  44.5576593  16.0550943   5.6945273  43.9266763
  16.1172883   6.3232983  45.3024163  15.7103183   6.2722493  48.0796143
  14.7605893   6.2386033  48.1941133  15.8916193   7.1822603  47.8445913
  15.0213433   5.4455973  40.4969003  15.5172553   5.2126843  41.2817883
  14.8229503   4.6067813  40.0806643  16.4500593   4.0816923  43.0306683
  16.3399873   3.9272963  43.9688953  17.2108183   3.5537863  42.7882093
  17.3390863   1.9124843  36.2712823  18.2640173   1.7806023  36.0631113
  17.3166653   1.9917663  37.2249273  17.4129353   2.6835503  38.8969533
  16.6180853   2.6180623  39.4262443  17.6172633   3.6186143  38.8854883
  14.3547773  16.7227053  42.8907923  14.9506843  16.4011623  42.2142343
  14.6125923  16.2498873  43.6821193   2.2610343  13.1544963  53.0398553
   2.2179973  12.7837873  53.9213013   2.3921353  14.0922533  53.1800373
   5.9616373  14.7104553  48.6408273   5.7207733  14.9779113  47.7538793
   6.9019013  14.8810283  48.6959133  17.2220533  16.7298933  49.4418913
  16.7278813  17.1267803  48.7246043  16.6133823  16.1048143  49.8356193
   2.0998373  16.1007213  50.1596333   1.5058693  15.9691913  50.8986373
   2.0922213  15.2645353  49.6938433  14.9059983  17.3722353  46.7205653
  14.4462953  18.1238163  46.3463673  14.2772443  16.6528823  46.6620453
   5.3355703  15.6810593  45.8953783   5.8520723  15.0697953  45.3702043
   5.9853083  16.1839373  46.3864793   8.0751203  16.5719083  46.7222763
   8.3629013  16.3173383  45.8455773   8.5874423  16.0196443  47.3128333
   7.1782433   2.7296033  42.8135303   6.3656943   2.3552923  42.4731183
   7.6824073   1.9741113  43.1156493   8.1423563  17.4935183  54.0890963
   9.0690873  17.2579453  54.1326923   8.1273993  18.3207183  53.6076993
  16.3768623  17.0360753  41.0865213  16.5520813  16.3498493  40.4426133
  15.6790193  17.5607803  40.6941883   4.2196273  17.4255593  38.6400523
   4.9515093  17.1414873  38.0924413   4.4789943  17.1868873  39.5299903
   3.3811063  13.5420323  38.6446853   2.7519943  14.0105423  39.1932683
   3.4958893  12.6969543  39.0793043  14.7101123  16.7205043  53.9132003
  15.5026443  16.2254273  53.7057963  15.0034273  17.3995183  54.5207613
  10.8360783   7.5925983  24.7948053  10.7554833   6.6780593  24.5239763
  10.4225203   8.0893053  24.0887763   8.9678823   9.3705003  26.6757323
   8.1920923   8.8905443  26.9655893   9.6191753   8.6910653  26.5013483
   2.9844653   9.6824813  27.5533083   2.1529533   9.4273523  27.9529593
   3.5925633   9.7535583  28.2891003  12.9886253  13.7765193  25.4556453
  12.5267783  13.0052433  25.7843623  13.8011803  13.8031263  25.9608903
   2.9645913  13.7164903  27.7491103   3.2673953  12.8262643  27.5701323
   3.7089503  14.2735123  27.5213353   9.2149563  16.0623203  25.0760443
   8.5961003  16.5180703  24.5054883  10.0701343  16.2174663  24.6750143
   8.4087813  12.0462193  26.6827483   8.3396093  11.1052133  26.5216613
   9.1707673  12.1363603  27.2550053   9.4392983   4.8532573  26.9096413
   9.8157803   3.9804453  26.7970083   9.3412493   5.1891273  26.0186853
   3.5697993   3.2258203  22.3713853   3.6764743   4.1261933  22.6782613
   2.6590353   3.1776173  22.0808503  13.2217103   2.3483013  23.8424753
  14.0426723   1.8579583  23.8850233  13.2551183   2.9380673  24.5956593
   5.4105723   6.1944573  26.7039033   5.9183943   6.6925543  27.3444053
   5.9418963   5.4179773  26.5278393  17.5116653   4.3649763  30.4068383
  16.8068823   4.7531473  29.8883493  17.7774573   5.0600053  31.0089313
  10.0812913  10.9462443  22.4692353   9.4630183  11.4111893  21.9055073
  10.5936163  11.6389923  22.8861863   4.9444673  10.4738313  29.1475953
   4.6114053  11.1007233  29.7897023   5.1211353  11.0000193  28.3677623
  13.4578583   4.2883393  26.6152293  12.7534153   4.5768283  27.1955403
  13.8190743   5.0983503  26.2551853   3.3757153   2.5453093  28.9772903
   3.7173963   3.3895143  28.6826773   2.4372963   2.6936833  29.0938243
   4.1563773  12.4419113  30.9625133   4.7737773  13.1170193  30.6809583
   3.2956893  12.8507093  30.8712633  15.0741363  13.9058523  28.8779773
  14.3904883  14.5757633  28.8696443  15.6135653  14.1039173  28.1124633
  16.5265503   3.7338183  27.0061503  15.5790413   3.7677163  27.1376933
  16.8515493   4.5477133  27.3910863  12.6100103  15.7502653  27.5924953
  12.6227263  15.3464943  26.7247213  12.0575323  16.5249943  27.4886383
  13.9045523  12.4718873  22.6815123  13.7941853  11.5293203  22.8064543
  13.9013773  12.8334513  23.5677883  12.0085543  10.6532493  28.9207563
  12.4254333  10.4392603  28.0861023  12.7325363  10.9105283  29.4916183
   9.4465803   8.0984193  22.0377613   8.5195083   8.0321573  22.2666083
   9.5990623   9.0364323  21.9232853   9.4334883   4.3701193  19.0344773
   8.4938553   4.5315153  19.1197233   9.7518143   5.0886873  18.4880763
  15.9547643   9.0519713  29.0123803  15.1266273   9.1212803  28.5373933
  16.5498123   9.6374023  28.5439633  13.4763093   9.6604493  22.5412863
  12.8575513   9.3224043  21.8939163  13.4587543   9.0164253  23.2492053
  12.9189653   5.8389033  29.9578673  12.5060833   6.6642743  30.2118663
  12.1865603   5.2534073  29.7655033   5.0522443   8.6248933  24.8197343
   4.6479443   7.9126183  24.3243243   5.1385563   8.2802173  25.7085383
   5.5204143  12.3116493  26.9836553   5.2232433  11.7061963  26.3044333
   6.4703963  12.3493803  26.8725913   3.7651063   5.3992143  28.5996383
   4.3165653   5.5087483  27.8249633   4.2794573   5.7729743  29.3151613
  13.6089753  15.8848363  30.6459653  13.1320313  16.6920553  30.4532263
  12.9251543  15.2326693  30.7985863   4.6122573  12.0498183  33.6344353
   3.7151103  12.2738153  33.8817753   4.6375443  12.1733123  32.6855753
  11.6527793   8.8991303  19.5485613  12.0921073   8.0613733  19.4023433
  12.3656213   9.5320703  19.6349753   3.4393793   8.9211503  32.2101723
   3.3001563   9.7934303  32.5789123   2.5575153   8.5784313  32.0649663
   9.7623173  13.8387373  23.5166853  10.2019083  14.5811703  23.1022243
   9.7010063  14.0813943  24.4405813   5.2374143  14.8633203  34.4186873
   5.2089573  15.2676153  33.5515303   5.0739113  13.9343563  34.2558473
  17.1888963  15.6460303  35.7151043  17.6648683  16.1243193  36.3940123
  17.8096123  15.5777793  34.9896543  16.5922213  12.8373153  32.8751053
  16.7185273  12.5985033  31.9568233  16.6343593  12.0057693  33.3473133
  10.4538953  16.5401153  31.4445863  10.9683623  16.4509163  32.2468293
   9.6108033  16.8860853  31.7373773  12.4293353  16.8256493  20.8729863
  12.2694493  16.5359433  21.7711693  12.2640063  16.0496623  20.3375093
   4.9081733  16.6055023  22.6501483   4.7324213  15.6890563  22.4369283
   4.0537473  16.9642313  22.8899283  12.1319483  14.3344053  19.4327863
  11.4384643  14.3321343  18.7730143  12.8742343  13.9103373  19.0022033
  11.6969413  15.9606763  23.5076353  12.1526363  15.1796143  23.8214973
  12.0361933  16.6713583  24.0517533  16.4446223   4.8905613  33.8400793
  15.8290493   5.3985283  33.3116253  16.1242643   3.9903943  33.7826733
   8.5060543   3.7297503  31.3062983   8.0439913   3.9380523  32.1182923
   8.1038653   2.9156853  31.0033653  13.5065053   4.9506453  32.4359643
  12.6558643   4.6512203  32.7568713  13.3466843   5.1948463  31.5243463
  10.6014763   6.4508203  34.5358433  10.9268173   5.6171953  34.1960663
  11.3895093   6.9736723  34.6836763   4.0104953   5.9862553  23.4308913
   3.7845873   5.7699723  24.3355533   3.2297483   6.4191013  23.0854883
  11.2402713   5.9925923  22.0299563  10.6411603   6.7161723  21.8463183
  11.7882323   5.9302703  21.2476013   6.4504163   6.8848133  34.0969183
   6.3547763   5.9442863  33.9469583   7.2936143   7.1063203  33.7017253
   9.8467583   4.6289463  24.0602843  10.2397153   4.9461663  23.2471533
  10.2084433   3.7501343  24.1747363   8.1559753   3.3796773  35.3199703
   7.4658073   3.1868973  35.9545793   8.8992053   3.6631413  35.8524003
  10.4322723   7.2195213  28.1553623   9.7003843   7.7282023  28.5043723
  10.0347063   6.4025193  27.8542403   6.8700113   3.8949413  26.5606113
   6.8736173   3.4539363  25.7110653   7.7651233   4.2166743  26.6677933
   2.7202493   3.7775903  25.5200323   2.3802543   4.2551133  26.2767373
   1.9579813   3.3241023  25.1601423   6.9320263   4.8961493  19.5512873
   7.0533083   4.8547973  20.4998693   6.5468773   5.7585643  19.3959603
  10.8948633   2.6728893  27.5676563  10.9121373   3.1237543  28.4118413
  10.6464213   1.7734533  27.7810003   5.9441763   7.2062633  18.9496173
   5.3758663   6.7580883  18.3232083   6.6530763   7.5655413  18.4161323
   7.1708083   7.9551193  28.3071523   7.5378213   7.4809763  29.0532863
   6.9813143   8.8292763  28.6479863   4.9607453   6.9959833  30.6255733
   4.6564523   7.8751813  30.8506093   5.9153913   7.0559623  30.6613173
   3.4889243  11.2020823  21.2222583   2.7151503  10.6618443  21.0621303
   4.2183873  10.6827433  20.8840343  14.2477223  10.1986183  27.0148973
  14.9676343  10.6941473  26.6245083  14.0459043   9.5204073  26.3702843
   9.6296023  10.2695243  32.9017973   9.5633333   9.3490913  32.6475563
   9.0001163  10.3670683  33.6162613  12.4235553   5.9643793  19.4540523
  13.3115173   6.2761023  19.2791863  12.3940643   5.0916043  19.0621103
   3.5326643  10.8701203  24.8601393   4.0505313  10.0669463  24.8058283
   3.0810663  10.8080343  25.7018223   8.4196143  12.1367483  20.1328693
   8.7611843  12.8809713  19.6372013   7.5908853  12.4498603  20.4953523
   4.2184303   8.2946813  34.6566643   3.9184443   8.4403993  33.7594463
   4.9895543   7.7352103  34.5640033   9.5612753  13.0915813  32.6521773
   9.5757293  12.1596773  32.4340683   8.8537853  13.1775573  33.2911543
  14.6949823   7.2755633  18.9220383  14.6113543   7.7069853  18.0716823
  15.4144013   7.7353983  19.3547203  15.7723963   9.7323153  31.9990353
  15.0472153  10.3251933  31.8019743  16.2999423   9.7246693  31.2003723
  15.7237073  14.1297893  21.6502513  15.0813233  13.4753513  21.9246233
  15.3367733  14.5352983  20.8743183  11.3023553  11.4583323  25.4974203
  11.6547373  10.8611453  24.8375573  10.4185883  11.1327553  25.6682453
   7.3886833  12.2181013  22.9044613   8.0757963  12.7650223  23.2852203
   6.6019253  12.7621743  22.9394223   6.6914043   9.2227043  22.5169973
   7.1476823  10.0332293  22.7430163   6.3402253   8.9050183  23.3488463
   8.9946653  14.7333383  29.7462273   9.6388873  14.9392763  30.4235693
   9.3576093  13.9721783  29.2933123  10.2678733  12.7365733  28.4639723
  10.9100963  12.0358893  28.5771893  10.7928083  13.5164173  28.2836613
  14.1134453  13.0214353  18.1878863  13.8872033  12.3044793  18.7803503
  13.7230653  12.7726793  17.3500613  12.0416353  13.5360633  31.6675783
  12.3772593  14.1227323  32.3453703  11.1216693  13.4053343  31.8973573
  13.6950703  10.9386293  19.8493023  13.4072403  11.3998983  20.6370903
  14.4902873  10.4784063  20.1177243   7.8704933  13.5851963  34.8363843
   7.5501803  12.8661203  35.3809533   7.1963293  14.2607033  34.9099903
   5.9119103  14.4312413  19.7796993   5.9029203  15.1642103  19.1641503
   4.9917463  14.1843993  19.8723953  11.0858533   3.8178123  30.2000643
  11.4539353   2.9973333  30.5280213  10.2256733   3.8780013  30.6156293
  14.4520563   2.7735063  21.0088203  13.8233723   2.8780733  20.2946433
  13.9572483   2.9931843  21.7982083   8.8978703  14.4940653  18.4422183
   8.9990683  14.2904643  17.5124163   7.9980443  14.2398933  18.6469963
   6.4204593   5.0521013  22.4246083   5.7120743   5.5207353  22.8659693
   6.7049073   4.3943023  23.0591273   8.0460523   6.4717713  30.4238613
   8.5445773   6.9463533  31.0890463   8.1883473   5.5481233  30.6308643
  10.4520023   1.7771673  23.8641873  10.3287803   1.7957803  22.9151383
  11.4004583   1.8250613  23.9840273   7.5396813  17.0126973  23.1369853
   7.7938313  16.9748363  22.2149223   6.5909293  16.8860303  23.1298103
   4.6239613   3.3606093  19.7996793   5.4730143   3.7976243  19.7336983
   4.2570883   3.6726353  20.6268853  15.2527383   2.6885673  31.2667003
  14.7500983   3.4291073  31.6060813  16.0684043   3.0769673  30.9503793
  13.5449393   7.9318853  24.7128363  12.6039533   7.9469083  24.8876053
  13.8593463   7.1454813  25.1588663   3.5231033   9.6138453  18.2732323
   4.2894303   9.5019813  18.8357753   3.6005723   8.9176423  17.6209093
   2.2177793   7.0463523  18.9565213   2.2981383   6.0991033  19.0682613
   3.1097543   7.3770403  19.0625873  15.5474973  15.1027703  26.3882623
  15.6722393  15.9258873  26.8606433  16.4140533  14.8918433  26.0406773
   3.0192503  17.1958913  26.0599753   3.7554983  16.6474373  26.3308323
   3.4033423  18.0614923  25.9205743   2.0250783  16.3804983  35.2485333
   2.8263513  16.7017033  35.6620733   1.5102603  16.0200563  35.9705243
   6.1294813  16.3689223  17.8825323   6.9223423  16.6578053  17.4307113
   5.6099163  15.9381393  17.2037803  10.8615413  12.4884853  35.1960743
  10.2553573  12.5116453  34.4556493  10.5569523  11.7567893  35.7327993
  12.2915783  16.2165143  33.8070153  13.2437533  16.1323163  33.7570393
  12.1444003  16.8806853  34.4803943  15.1824983  15.5959353  19.3062063
  14.8966493  15.1824493  18.4916243  14.9844533  16.5247063  19.1862583
   6.6472213  11.5892633  17.7467673   6.5422853  10.9744983  18.4729053
   6.4796433  11.0658523  16.9630683   6.7986533  10.2749433  33.7256903
   6.0332203  10.8434433  33.6411573   6.9802493   9.9825643  32.8325133
   9.8874943  10.6512663  18.3509663   9.3385043  11.0981963  18.9952403
  10.5094203  10.1461913  18.8747333  13.9409883  12.0054763  34.2831923
  14.6819353  12.3430523  33.7799383  13.1782563  12.1746823  33.7301693
   1.7771673   7.0108033  35.0871453   1.8177013   6.7121903  35.9956683
   2.6317173   7.4115643  34.9278973   5.5550063   9.6103583  20.2474963
   5.9766483   9.4443453  21.0906353   5.6800903   8.8003813  19.7530103
   3.7177483   5.5900133  33.0545943   3.1873943   5.0991083  32.4269283
   4.3865553   6.0184333  32.5203873   8.0677703   8.6341193  17.4952063
   8.5883363   7.9190213  17.1293213   8.7146103   9.2727063  17.7952573
  12.6155543  10.0569593  32.8187133  13.0296563  10.2114673  33.6677553
  11.6806543  10.1824813  32.9812913  13.0877713   7.3965753  34.8226283
  13.6698483   6.6418073  34.7346763  13.2639483   7.9273193  34.0457763
   4.2049783   2.5562503  33.1343233   4.1106653   1.9383253  32.4094103
   3.6247173   3.2828793  32.9073143   7.3770773  10.0090073  30.7883063
   7.7958883  10.8522803  30.6159303   6.4579403  10.1462113  30.5589843
   9.7134673   7.7406253  32.1720903   9.8330883   7.1447393  32.9115743
  10.5728673   7.7775943  31.7522203  12.0522573   8.2943443  30.7483413
  11.5257793   8.8186063  30.1448553  12.3953913   8.9270833  31.3793143
   4.4508963   5.6836813  17.1933123   4.2498023   4.8204173  17.5546463
   4.2801013   5.5970173  16.2554723   5.2278193  16.3143083  31.9040793
   4.6899283  17.0389143  31.5849493   5.4812153  15.8373423  31.1138133
   6.4803443   4.2827603  33.4296723   7.0703133   3.9743453  34.1174543
   5.6623683   3.8107353  33.5856623  11.2996873   3.8993413  33.6629743
  10.6112393   3.2374953  33.5979733  12.0202893   3.4531683  34.1078203
   3.2491763   2.7837433  17.1811003   3.5517663   2.7904863  16.2730153
   3.9886353   2.4335293  17.6778663   8.0840403  17.5494293  32.1627443
   8.0099103  18.4529433  32.4699813   7.1819243  17.2306193  32.1349513
   8.6325733  16.7152803  19.7853803   9.5276523  17.0537773  19.8072563
   8.6643363  15.9932213  19.1578083   2.2721893  12.0879853  18.0140803
   2.7096763  12.6309523  18.6698383   2.7569623  11.2626803  18.0237143
   4.0829613  13.2077893  23.1263033   3.7825153  13.0842863  24.0266943
   3.9767103  12.3486483  22.7178763  15.6120083  15.2456473  32.4920003
  15.0122073  15.3049033  31.7483923  15.7413983  14.3061453  32.6216853
  16.8521533  12.9874293  17.8289713  16.0214493  13.0550943  18.2996943
  17.0293363  13.8778413  17.5256573  16.3077993   9.7321773  20.3323913
  17.0696903  10.3018423  20.4383603  16.3232363   9.1648973  21.1032223
  17.3137963  10.5871873  25.1765843  17.6846793   9.8039193  24.7701813
  17.9539893  11.2760973  24.9983143  14.2971723  11.9708453  30.5896163
  13.4831563  12.4005613  30.8521953  14.7045923  12.5826863  29.9765213
  16.3597163  10.0256143  17.4896433  16.6346003  10.9335023  17.3615653
  16.1707903   9.9618673  18.4258423  12.7572773   3.0500993  18.7850063
  13.1757653   2.8631973  17.9446723  12.4508833   2.1980043  19.0952993
  16.2562503   7.9625133  22.4825863  15.8806103   7.1953063  22.0507153
  15.5265623   8.3447833  22.9700793  15.6462123   7.1096653  32.1165383
  15.4148213   6.8809403  31.2163333  15.9066673   8.0296203  32.0710273
  15.5313463   6.1882623  25.7833103  16.0550943   5.6945273  25.1523273
  16.1172883   6.3232983  26.5280673  15.7103183   6.2722493  29.3052653
  14.7605893   6.2386033  29.4197643  15.8916193   7.1822603  29.0702423
  15.0213433   5.4455973  21.7225513  15.5172553   5.2126843  22.5074393
  14.8229503   4.6067813  21.3063153  16.4500593   4.0816923  24.2563193
  16.3399873   3.9272963  25.1945463  17.2108183   3.5537863  24.0138603
  17.3390863   1.9124843  17.4969333  18.2640173   1.7806023  17.2887623
  17.3166653   1.9917663  18.4505783  17.4129353   2.6835503  20.1226043
  16.6180853   2.6180623  20.6518953  17.6172633   3.6186143  20.1111393
  14.3547773  16.7227053  24.1164433  14.9506843  16.4011623  23.4398853
  14.6125923  16.2498873  24.9077703   2.2610343  13.1544963  34.2655063
   2.2179973  12.7837873  35.1469523   2.3921353  14.0922533  34.4056883
   5.9616373  14.7104553  29.8664783   5.7207733  14.9779113  28.9795303
   6.9019013  14.8810283  29.9215643  17.2220533  16.7298933  30.6675423
  16.7278813  17.1267803  29.9502553  16.6133823  16.1048143  31.0612703
   2.0998373  16.1007213  31.3852843   1.5058693  15.9691913  32.1242883
   2.0922213  15.2645353  30.9194943  14.9059983  17.3722353  27.9462163
  14.4462953  18.1238163  27.5720183  14.2772443  16.6528823  27.8876963
   5.3355703  15.6810593  27.1210293   5.8520723  15.0697953  26.5958553
   5.9853083  16.1839373  27.6121303   8.0751203  16.5719083  27.9479273
   8.3629013  16.3173383  27.0712283   8.5874423  16.0196443  28.5384843
   7.1782433   2.7296033  24.0391813   6.3656943   2.3552923  23.6987693
   7.6824073   1.9741113  24.3413003   8.1423563  17.4935183  35.3147473
   9.0690873  17.2579453  35.3583433   8.1273993  18.3207183  34.8333503
  16.3768623  17.0360753  22.3121723  16.5520813  16.3498493  21.6682643
  15.6790193  17.5607803  21.9198393   4.2196273  17.4255593  19.8657033
   4.9515093  17.1414873  19.3180923   4.4789943  17.1868873  20.7556413
   3.3811063  13.5420323  19.8703363   2.7519943  14.0105423  20.4189193
   3.4958893  12.6969543  20.3049553  14.7101123  16.7205043  35.1388513
  15.5026443  16.2254273  34.9314473  15.0034273  17.3995183  35.7464123
  10.8360783   7.5925983   6.0204563  10.7554833   6.6780593   5.7496273
  10.4225203   8.0893053   5.3144273   8.9678823   9.3705003   7.9013833
   8.1920923   8.8905443   8.1912403   9.6191753   8.6910653   7.7269993
   2.9844653   9.6824813   8.7789593   2.1529533   9.4273523   9.1786103
   3.5925633   9.7535583   9.5147513  12.9886253  13.7765193   6.6812963
  12.5267783  13.0052433   7.0100133  13.8011803  13.8031263   7.1865413
   2.9645913  13.7164903   8.9747613   3.2673953  12.8262643   8.7957833
   3.7089503  14.2735123   8.7469863   9.2149563  16.0623203   6.3016953
   8.5961003  16.5180703   5.7311393  10.0701343  16.2174663   5.9006653
   8.4087813  12.0462193   7.9083993   8.3396093  11.1052133   7.7473123
   9.1707673  12.1363603   8.4806563   9.4392983   4.8532573   8.1352923
   9.8157803   3.9804453   8.0226593   9.3412493   5.1891273   7.2443363
   3.5697993   3.2258203   3.5970363   3.6764743   4.1261933   3.9039123
   2.6590353   3.1776173   3.3065013  13.2217103   2.3483013   5.0681263
  14.0426723   1.8579583   5.1106743  13.2551183   2.9380673   5.8213103
   5.4105723   6.1944573   7.9295543   5.9183943   6.6925543   8.5700563
   5.9418963   5.4179773   7.7534903  17.5116653   4.3649763  11.6324893
  16.8068823   4.7531473  11.1140003  17.7774573   5.0600053  12.2345823
  10.0812913  10.9462443   3.6948863   9.4630183  11.4111893   3.1311583
  10.5936163  11.6389923   4.1118373   4.9444673  10.4738313  10.3732463
   4.6114053  11.1007233  11.0153533   5.1211353  11.0000193   9.5934133
  13.4578583   4.2883393   7.8408803  12.7534153   4.5768283   8.4211913
  13.8190743   5.0983503   7.4808363   3.3757153   2.5453093  10.2029413
   3.7173963   3.3895143   9.9083283   2.4372963   2.6936833  10.3194753
   4.1563773  12.4419113  12.1881643   4.7737773  13.1170193  11.9066093
   3.2956893  12.8507093  12.0969143  15.0741363  13.9058523  10.1036283
  14.3904883  14.5757633  10.0952953  15.6135653  14.1039173   9.3381143
  16.5265503   3.7338183   8.2318013  15.5790413   3.7677163   8.3633443
  16.8515493   4.5477133   8.6167373  12.6100103  15.7502653   8.8181463
  12.6227263  15.3464943   7.9503723  12.0575323  16.5249943   8.7142893
  13.9045523  12.4718873   3.9071633  13.7941853  11.5293203   4.0321053
  13.9013773  12.8334513   4.7934393  12.0085543  10.6532493  10.1464073
  12.4254333  10.4392603   9.3117533  12.7325363  10.9105283  10.7172693
   9.4465803   8.0984193   3.2634123   8.5195083   8.0321573   3.4922593
   9.5990623   9.0364323   3.1489363  15.9547643   9.0519713  10.2380313
  15.1266273   9.1212803   9.7630443  16.5498123   9.6374023   9.7696143
  13.4763093   9.6604493   3.7669373  12.8575513   9.3224043   3.1195673
  13.4587543   9.0164253   4.4748563  12.9189653   5.8389033  11.1835183
  12.5060833   6.6642743  11.4375173  12.1865603   5.2534073  10.9911543
   5.0522443   8.6248933   6.0453853   4.6479443   7.9126183   5.5499753
   5.1385563   8.2802173   6.9341893   5.5204143  12.3116493   8.2093063
   5.2232433  11.7061963   7.5300843   6.4703963  12.3493803   8.0982423
   3.7651063   5.3992143   9.8252893   4.3165653   5.5087483   9.0506143
   4.2794573   5.7729743  10.5408123  13.6089753  15.8848363  11.8716163
  13.1320313  16.6920553  11.6788773  12.9251543  15.2326693  12.0242373
   4.6122573  12.0498183  14.8600863   3.7151103  12.2738153  15.1074263
   4.6375443  12.1733123  13.9112263   3.4393793   8.9211503  13.4358233
   3.3001563   9.7934303  13.8045633   2.5575153   8.5784313  13.2906173
   9.7623173  13.8387373   4.7423363  10.2019083  14.5811703   4.3278753
   9.7010063  14.0813943   5.6662323   5.2374143  14.8633203  15.6443383
   5.2089573  15.2676153  14.7771813   5.0739113  13.9343563  15.4814983
  17.1888963  15.6460303  16.9407553  17.6648683  16.1243193  17.6196633
  17.8096123  15.5777793  16.2153053  16.5922213  12.8373153  14.1007563
  16.7185273  12.5985033  13.1824743  16.6343593  12.0057693  14.5729643
  10.4538953  16.5401153  12.6702373  10.9683623  16.4509163  13.4724803
   9.6108033  16.8860853  12.9630283   4.9081733  16.6055023   3.8757993
   4.7324213  15.6890563   3.6625793   4.0537473  16.9642313   4.1155793
  11.6969413  15.9606763   4.7332863  12.1526363  15.1796143   5.0471483
  12.0361933  16.6713583   5.2774043  16.4446223   4.8905613  15.0657303
  15.8290493   5.3985283  14.5372763  16.1242643   3.9903943  15.0083243
   8.5060543   3.7297503  12.5319493   8.0439913   3.9380523  13.3439433
   8.1038653   2.9156853  12.2290163  13.5065053   4.9506453  13.6616153
  12.6558643   4.6512203  13.9825223  13.3466843   5.1948463  12.7499973
  10.6014763   6.4508203  15.7614943  10.9268173   5.6171953  15.4217173
  11.3895093   6.9736723  15.9093273   4.0104953   5.9862553   4.6565423
   3.7845873   5.7699723   5.5612043   3.2297483   6.4191013   4.3111393
  11.2402713   5.9925923   3.2556073  10.6411603   6.7161723   3.0719693
  11.7882323   5.9302703   2.4732523   6.4504163   6.8848133  15.3225693
   6.3547763   5.9442863  15.1726093   7.2936143   7.1063203  14.9273763
   9.8467583   4.6289463   5.2859353  10.2397153   4.9461663   4.4728043
  10.2084433   3.7501343   5.4003873   8.1559753   3.3796773  16.5456213
   7.4658073   3.1868973  17.1802303   8.8992053   3.6631413  17.0780513
  10.4322723   7.2195213   9.3810133   9.7003843   7.7282023   9.7300233
  10.0347063   6.4025193   9.0798913   6.8700113   3.8949413   7.7862623
   6.8736173   3.4539363   6.9367163   7.7651233   4.2166743   7.8934443
   2.7202493   3.7775903   6.7456833   2.3802543   4.2551133   7.5023883
   1.9579813   3.3241023   6.3857933  10.8948633   2.6728893   8.7933073
  10.9121373   3.1237543   9.6374923  10.6464213   1.7734533   9.0066513
   7.1708083   7.9551193   9.5328033   7.5378213   7.4809763  10.2789373
   6.9813143   8.8292763   9.8736373   4.9607453   6.9959833  11.8512243
   4.6564523   7.8751813  12.0762603   5.9153913   7.0559623  11.8869683
   3.4889243  11.2020823   2.4479093   2.7151503  10.6618443   2.2877813
   4.2183873  10.6827433   2.1096853  14.2477223  10.1986183   8.2405483
  14.9676343  10.6941473   7.8501593  14.0459043   9.5204073   7.5959353
   9.6296023  10.2695243  14.1274483   9.5633333   9.3490913  13.8732073
   9.0001163  10.3670683  14.8419123   3.5326643  10.8701203   6.0857903
   4.0505313  10.0669463   6.0314793   3.0810663  10.8080343   6.9274733
   4.2184303   8.2946813  15.8823153   3.9184443   8.4403993  14.9850973
   4.9895543   7.7352103  15.7896543   9.5612753  13.0915813  13.8778283
   9.5757293  12.1596773  13.6597193   8.8537853  13.1775573  14.5168053
  15.7723963   9.7323153  13.2246863  15.0472153  10.3251933  13.0276253
  16.2999423   9.7246693  12.4260233  15.7237073  14.1297893   2.8759023
  15.0813233  13.4753513   3.1502743  15.3367733  14.5352983   2.0999693
  11.3023553  11.4583323   6.7230713  11.6547373  10.8611453   6.0632083
  10.4185883  11.1327553   6.8938963   7.3886833  12.2181013   4.1301123
   8.0757963  12.7650223   4.5108713   6.6019253  12.7621743   4.1650733
   6.6914043   9.2227043   3.7426483   7.1476823  10.0332293   3.9686673
   6.3402253   8.9050183   4.5744973   8.9946653  14.7333383  10.9718783
   9.6388873  14.9392763  11.6492203   9.3576093  13.9721783  10.5189633
  10.2678733  12.7365733   9.6896233  10.9100963  12.0358893   9.8028403
  10.7928083  13.5164173   9.5093123  12.0416353  13.5360633  12.8932293
  12.3772593  14.1227323  13.5710213  11.1216693  13.4053343  13.1230083
   7.8704933  13.5851963  16.0620353   7.5501803  12.8661203  16.6066043
   7.1963293  14.2607033  16.1356413  11.0858533   3.8178123  11.4257153
  11.4539353   2.9973333  11.7536723  10.2256733   3.8780013  11.8412803
   6.4204593   5.0521013   3.6502593   5.7120743   5.5207353   4.0916203
   6.7049073   4.3943023   4.2847783   8.0460523   6.4717713  11.6495123
   8.5445773   6.9463533  12.3146973   8.1883473   5.5481233  11.8565153
  10.4520023   1.7771673   5.0898383  10.3287803   1.7957803   4.1407893
  11.4004583   1.8250613   5.2096783   7.5396813  17.0126973   4.3626363
   7.7938313  16.9748363   3.4405733   6.5909293  16.8860303   4.3554613
  15.2527383   2.6885673  12.4923513  14.7500983   3.4291073  12.8317323
  16.0684043   3.0769673  12.1760303  13.5449393   7.9318853   5.9384873
  12.6039533   7.9469083   6.1132563  13.8593463   7.1454813   6.3845173
  15.5474973  15.1027703   7.6139133  15.6722393  15.9258873   8.0862943
  16.4140533  14.8918433   7.2663283   3.0192503  17.1958913   7.2856263
   3.7554983  16.6474373   7.5564833   3.4033423  18.0614923   7.1462253
   2.0250783  16.3804983  16.4741843   2.8263513  16.7017033  16.8877243
   1.5102603  16.0200563  17.1961753  10.8615413  12.4884853  16.4217253
  10.2553573  12.5116453  15.6813003  10.5569523  11.7567893  16.9584503
  12.2915783  16.2165143  15.0326663  13.2437533  16.1323163  14.9826903
  12.1444003  16.8806853  15.7060453   6.7986533  10.2749433  14.9513413
   6.0332203  10.8434433  14.8668083   6.9802493   9.9825643  14.0581643
  13.9409883  12.0054763  15.5088433  14.6819353  12.3430523  15.0055893
  13.1782563  12.1746823  14.9558203   1.7771673   7.0108033  16.3127963
   1.8177013   6.7121903  17.2213193   2.6317173   7.4115643  16.1535483
   3.7177483   5.5900133  14.2802453   3.1873943   5.0991083  13.6525793
   4.3865553   6.0184333  13.7460383  12.6155543  10.0569593  14.0443643
  13.0296563  10.2114673  14.8934063  11.6806543  10.1824813  14.2069423
  13.0877713   7.3965753  16.0482793  13.6698483   6.6418073  15.9603273
  13.2639483   7.9273193  15.2714273   4.2049783   2.5562503  14.3599743
   4.1106653   1.9383253  13.6350613   3.6247173   3.2828793  14.1329653
   7.3770773  10.0090073  12.0139573   7.7958883  10.8522803  11.8415813
   6.4579403  10.1462113  11.7846353   9.7134673   7.7406253  13.3977413
   9.8330883   7.1447393  14.1372253  10.5728673   7.7775943  12.9778713
  12.0522573   8.2943443  11.9739923  11.5257793   8.8186063  11.3705063
  12.3953913   8.9270833  12.6049653   5.2278193  16.3143083  13.1297303
   4.6899283  17.0389143  12.8106003   5.4812153  15.8373423  12.3394643
   6.4803443   4.2827603  14.6553233   7.0703133   3.9743453  15.3431053
   5.6623683   3.8107353  14.8113133  11.2996873   3.8993413  14.8886253
  10.6112393   3.2374953  14.8236243  12.0202893   3.4531683  15.3334713
   8.0840403  17.5494293  13.3883953   8.0099103  18.4529433  13.6956323
   7.1819243  17.2306193  13.3606023   4.0829613  13.2077893   4.3519543
   3.7825153  13.0842863   5.2523453   3.9767103  12.3486483   3.9435273
  15.6120083  15.2456473  13.7176513  15.0122073  15.3049033  12.9740433
  15.7413983  14.3061453  13.8473363  17.3137963  10.5871873   6.4022353
  17.6846793   9.8039193   5.9958323  17.9539893  11.2760973   6.2239653
  14.2971723  11.9708453  11.8152673  13.4831563  12.4005613  12.0778463
  14.7045923  12.5826863  11.2021723  16.2562503   7.9625133   3.7082373
  15.8806103   7.1953063   3.2763663  15.5265623   8.3447833   4.1957303
  15.6462123   7.1096653  13.3421893  15.4148213   6.8809403  12.4419843
  15.9066673   8.0296203  13.2966783  15.5313463   6.1882623   7.0089613
  16.0550943   5.6945273   6.3779783  16.1172883   6.3232983   7.7537183
  15.7103183   6.2722493  10.5309163  14.7605893   6.2386033  10.6454153
  15.8916193   7.1822603  10.2958933  15.0213433   5.4455973   2.9482023
  15.5172553   5.2126843   3.7330903  14.8229503   4.6067813   2.5319663
  16.4500593   4.0816923   5.4819703  16.3399873   3.9272963   6.4201973
  17.2108183   3.5537863   5.2395113  14.3547773  16.7227053   5.3420943
  14.9506843  16.4011623   4.6655363  14.6125923  16.2498873   6.1334213
   2.2610343  13.1544963  15.4911573   2.2179973  12.7837873  16.3726033
   2.3921353  14.0922533  15.6313393   5.9616373  14.7104553  11.0921293
   5.7207733  14.9779113  10.2051813   6.9019013  14.8810283  11.1472153
  17.2220533  16.7298933  11.8931933  16.7278813  17.1267803  11.1759063
  16.6133823  16.1048143  12.2869213   2.0998373  16.1007213  12.6109353
   1.5058693  15.9691913  13.3499393   2.0922213  15.2645353  12.1451453
  14.9059983  17.3722353   9.1718673  14.4462953  18.1238163   8.7976693
  14.2772443  16.6528823   9.1133473   5.3355703  15.6810593   8.3466803
   5.8520723  15.0697953   7.8215063   5.9853083  16.1839373   8.8377813
   8.0751203  16.5719083   9.1735783   8.3629013  16.3173383   8.2968793
   8.5874423  16.0196443   9.7641353   7.1782433   2.7296033   5.2648323
   6.3656943   2.3552923   4.9244203   7.6824073   1.9741113   5.5669513
   8.1423563  17.4935183  16.5403983   9.0690873  17.2579453  16.5839943
   8.1273993  18.3207183  16.0590013  16.3768623  17.0360753   3.5378233
  16.5520813  16.3498493   2.8939153  15.6790193  17.5607803   3.1454903
  14.7101123  16.7205043  16.3645023  15.5026443  16.2254273  16.1570983
  15.0034273  17.3995183  16.9720633
  72.5522705  72.9771025  71.4424035  90.0000000  90.0000000  90.0000000
