default_name
 31169
  38.2073767  37.0257043  35.7372339  38.1663767  35.6517043  36.3762339
  35.6663767  33.0767043  33.1562339  36.7423767  35.2897043  36.8542339
  35.6963767  35.5827043  35.7972339  36.5443767  35.1367043  33.2162339
  34.5193767  36.3407043  36.3792339  35.7053767  38.4837043  35.7072339
  38.0683767  37.9077043  33.1332339  34.9143767  37.7767043  36.7912339
  40.2833767  38.2037043  32.9902339  36.9383767  39.1567043  36.2782339
  34.8363767  37.7767043  33.2272339  37.9763767  38.1187043  36.7622339
  33.3833767  39.3787043  32.9682339  39.5123767  37.2397043  35.0132339
  39.1953767  37.7987043  33.6402339  35.2353767  34.3107043  35.1322339
  35.8753767  34.2447043  33.7602339  34.8403767  39.4807043  34.9782339
  34.3713767  38.8267043  33.6832339  37.3923767  39.7777043  35.5062339
  36.6453767  39.7867043  37.1182339  37.6153767  37.6647043  37.6852339
  38.9203767  38.6257043  36.9602339  40.0413767  36.2917043  34.9142339
  40.1283767  37.9487043  35.5662339  35.5423767  33.4497043  35.7262339
  34.1503767  34.3197043  35.0322339  35.4173767  40.3777043  34.7532339
  33.9783767  39.7407043  35.5932339  38.4933767  34.9117043  35.6452339
  38.8443767  35.6347043  37.2292339  36.5123767  35.8717043  37.7472339
  36.7093767  34.2287043  37.1022339  34.1553767  35.8087043  37.2582339
  33.7233767  36.3887043  35.6362339  35.5223767  37.7287043  37.6952339
  34.0103767  38.3477043  37.0012339  36.5273767  36.9767043  34.3022339
  62.4079830  31.0855310  45.1512170  67.7236470  63.9151780  61.7367160
  67.6430520  63.0006390  61.4658870  67.3100890  64.4118850  61.0306870
  65.8554510  65.6930800  63.6176430  65.0796610  65.2131240  63.9075000
  66.5067440  65.0136450  63.4432590  59.8720340  66.0050610  64.4952190
  59.0405220  65.7499320  64.8948700  60.4801320  66.0761380  65.2310110
  69.8761940  70.0990990  62.3975560  69.4143470  69.3278230  62.7262730
  70.6887490  70.1257060  62.9028010  59.8521600  70.0390700  64.6910210
  60.1549640  69.1488440  64.5120430  60.5965190  70.5960920  64.4632460
  58.2812290  60.9652500  58.2794580  57.3928990  61.3068470  58.1774460
  58.5653480  60.7652820  57.3875410  56.2445300  63.5658150  64.1634280
  56.8161410  62.7980350  64.1637920  56.2446840  63.8646910  63.2540890
  65.2963500  68.3687990  63.6246590  65.2271780  67.4277930  63.4635720
  66.0583360  68.4589400  64.1969160  57.4870170  58.9742510  65.9503210
  57.3073010  58.0768260  66.2305970  57.0850250  59.5214380  66.6250160
  66.3268670  61.1758370  63.8515520  66.7033490  60.3030250  63.7389190
  66.2288180  61.5117070  62.9605960  60.4573680  59.5484000  59.3132960
  60.5640430  60.4487730  59.6201720  59.5466040  59.5001970  59.0227610
  70.1092790  58.6708810  60.7843860  70.9302410  58.1805380  60.8269340
  70.1426870  59.2606470  61.5375700  58.1056840  61.4703010  64.5585550
  58.7866950  61.7341380  65.1772950  57.7904890  60.6303880  64.8923560
  62.2981410  62.5170370  63.6458140  62.8059630  63.0151340  64.2863160
  62.8294650  61.7405570  63.4697500  60.5817510  57.1568930  67.9121560
  60.5835950  57.6741320  67.1067460  59.7521820  56.6799110  67.8891490
  66.9688600  67.2688240  59.4111460  66.3505870  67.7337690  58.8474180
  67.4811850  67.9615720  59.8280970  61.8320360  66.7964110  66.0895060
  61.4989740  67.4233030  66.7316130  62.0087040  67.3225990  65.3096730
  70.3454270  60.6109190  63.5571400  69.6409840  60.8994080  64.1374510
  70.7066430  61.4209300  63.1970960  60.2632840  58.8678890  65.9192010
  60.6049650  59.7120940  65.6245880  59.3248650  59.0162630  66.0357350
  61.0439460  68.7644910  67.9044240  61.6613460  69.4395990  67.6228690
  60.1832580  69.1732890  67.8131740  56.3371800  67.9544770  56.7851090
  55.9599780  68.4431870  56.0535990  56.5944870  68.6270050  57.4157620
  63.9460730  56.3561160  62.2436600  64.2535710  55.8008050  61.5272100
  63.0161430  56.4905620  62.0609590  70.7921210  68.7944670  59.6234230
  70.6817540  67.8519000  59.7483650  70.7889460  69.1560310  60.5096990
  68.8961230  66.9758290  65.8626670  69.3130020  66.7618400  65.0280130
  69.6201050  67.2331080  66.4335290  66.3341490  64.4209990  58.9796720
  65.4070770  64.3547370  59.2085190  66.4866310  65.3590120  58.8651960
  66.3210570  60.6926990  55.9763880  65.3814240  60.8540950  56.0616340
  66.6393830  61.4112670  55.4299870  70.3638780  65.9830290  59.4831970
  69.7451200  65.6449840  58.8358270  70.3463230  65.3390050  60.1911160
  69.8065340  62.1614830  66.8997780  69.3936520  62.9868540  67.1537770
  69.0741290  61.5759870  66.7074140  61.9398130  64.9474730  61.7616450
  61.5355130  64.2351980  61.2662350  62.0261250  64.6027970  62.6504490
  62.4079830  68.6342290  63.9255660  62.1108120  68.0287760  63.2463440
  63.3579650  68.6719600  63.8145020  60.6526750  61.7217940  65.5415490
  61.2041340  61.8313280  64.7668740  61.1670260  62.0955540  66.2570720
  68.5403480  65.2217100  56.4904720  68.9796760  64.3839530  56.3442540
  69.2531900  65.8546500  56.5768860  66.6498860  70.1613170  60.4585960
  67.0894770  70.9037500  60.0441350  66.5885750  70.4039740  61.3824920
  58.6402760  63.8419710  59.2623100  58.5200360  64.5681800  58.6504370
  58.3303650  63.0722620  58.7851010  56.2788130  67.0134850  65.0691740
  56.3568550  67.1483620  64.1247460  56.8929810  66.3050740  65.2619860
  57.5235760  68.7135040  61.4797920  57.1163840  68.8549630  60.6251520
  58.4148770  68.4295200  61.2769130  69.0195170  70.6569850  56.3746970
  68.3260330  70.6547140  55.7149250  69.7618030  70.2329170  55.9441140
  56.3347650  68.0549020  67.6086200  56.4978690  67.5854380  66.7905570
  56.8000100  67.5472580  68.2735040  61.1066420  57.1854780  62.6446770
  60.6634570  57.9664320  62.3131290  61.6651410  57.5084670  63.3517710
  65.3936230  60.0523300  68.2482090  64.9315600  60.2606320  69.0602030
  64.9914340  59.2382650  67.9452760  64.2225240  56.8065480  57.5252600
  63.5979420  56.8025350  58.2505910  64.1355360  55.9396440  57.1288570
  63.1442320  57.7302110  64.5036370  63.4414650  58.6364940  64.4228390
  63.6927880  57.2420890  63.8895940  60.8980640  62.3088350  60.3728020
  60.6721560  62.0925520  61.2774640  60.1173170  62.7416810  60.0273990
  68.1278400  62.3151720  58.9718670  67.5287290  63.0387520  58.7882290
  68.6758010  62.2528500  58.1895120  66.7343270  60.9515260  61.0021950
  67.1272840  61.2687460  60.1890640  67.0960120  60.0727140  61.1166470
  55.7707440  57.5416060  63.2252150  55.4820490  58.1118920  63.9377130
  56.5153200  57.0620510  63.5883380  55.9577670  61.4836180  54.4354870
  55.8752340  62.4266940  54.5769860  55.6060730  61.3411090  53.5567220
  67.3198410  63.5421010  65.0972730  66.5879530  64.0507820  65.4462830
  66.9222750  62.7250990  64.7961510  63.7575800  60.2175210  63.5025220
  63.7611860  59.7765160  62.6529760  64.6526920  60.5392540  63.6097040
  59.6078180  60.1001700  62.4619430  59.2678230  60.5776930  63.2186480
  58.8455500  59.6466820  62.1020530  63.8195950  61.2187290  56.4931980
  63.9408770  61.1773770  57.4417800  63.4344460  62.0811440  56.3378710
  67.7824320  58.9954690  64.5095670  67.7997060  59.4463340  65.3537520
  67.5339900  58.0960330  64.7229110  62.8317450  63.5288430  55.8915280
  62.2634350  63.0806680  55.2651190  63.5406450  63.8881210  55.3580430
  64.0583770  64.2776990  65.2490630  64.4253900  63.8035560  65.9951970
  63.8688830  65.1518560  65.5898970  56.9224260  59.0220680  61.3784100
  56.6371180  58.6576350  62.2162720  56.8603120  58.2901140  60.7647240
  61.8483140  63.3185630  67.5674840  61.5440210  64.1977610  67.7925200
  62.8029600  63.3785420  67.6032280  60.3764930  67.5246620  58.1641690
  59.6027190  66.9844240  58.0040410  61.1059560  67.0053230  57.8259450
  71.1352910  66.5211980  63.9568080  71.8552030  67.0167270  63.5664190
  70.9334730  65.8429870  63.3121950  66.5962850  57.9149940  58.0997470
  65.7827460  57.4163110  58.0242780  66.4024800  58.7548190  57.6833820
  69.3111240  62.2869590  56.3959630  70.1990860  62.5986820  56.2210970
  69.2816330  61.4141840  56.0040210  60.4202330  67.1927000  61.8020500
  60.9381000  66.3895260  61.7477390  59.9686350  67.1306140  62.6437330
  65.3071830  68.4593280  57.0747800  65.6487530  69.2035510  56.5791120
  64.4784540  68.7724400  57.4372630  68.1899240  67.7809120  62.4393310
  68.5423060  67.1837250  61.7794680  67.3061570  67.4553350  62.6101560
  64.2762520  68.5406810  59.8463720  64.9633650  69.0876020  60.2271310
  63.4894940  69.0847540  59.8813330  56.4154920  64.1579630  55.3380800
  57.2849770  64.4404430  55.6216720  55.9245240  64.9715500  55.2229610
  63.5789730  65.5452840  59.4589080  64.0352510  66.3558090  59.6849270
  63.2277940  65.2275980  60.2907570  65.8822340  71.0559180  66.6881380
  66.5264560  71.2618560  67.3654800  66.2451780  70.2947580  66.2352230
  59.4801510  55.8890490  59.9311600  59.3516140  55.8808390  60.8796520
  58.6563530  56.2273580  59.5802610  67.1554420  69.0591530  65.4058830
  67.7976650  68.3584690  65.5191000  67.6803770  69.8389970  65.2255720
  71.0010140  69.3440150  55.1297970  70.7747720  68.6270590  55.7222610
  70.6106340  69.0952590  54.2919720  70.5826390  67.2612090  56.7912130
  70.2948090  67.7224780  57.5790010  71.3778560  66.8009860  57.0596350
  62.7994790  70.7538210  56.7216100  62.7904890  71.4867900  56.1060610
  61.8793150  70.5069790  56.8143060  58.4001430  65.9753100  57.4662860
  57.7929380  66.7152000  57.4758160  58.8750780  66.0652460  56.6401060
  67.9734220  60.1403920  67.1419750  68.3415040  59.3199130  67.4699320
  67.1132420  60.2005810  67.5575400  71.3396250  59.0960860  57.9507310
  70.7109410  59.2006530  57.2365540  70.8448170  59.3157640  58.7401190
  65.7854390  70.8166450  55.3841290  65.8866370  70.6130440  54.4543270
  64.8856130  70.5624730  55.5889070  63.3080280  61.3746810  59.3665190
  62.5996430  61.8433150  59.8078800  63.5924760  60.7168820  60.0010380
  64.9336210  62.7943510  67.3657720  65.4321460  63.2689330  68.0309570
  65.0759160  61.8707030  67.5727750  67.3395710  58.0997470  60.8060980
  67.2163490  58.1183600  59.8570490  68.2880270  58.1476410  60.9259380
  61.5115300  59.6831890  56.7415900  62.3605830  60.1202040  56.6756090
  61.1446570  59.9952150  57.5687960  70.4325080  64.2544650  61.6547470
  69.4915220  64.2694880  61.8295160  70.7469150  63.4680610  62.1007770
  60.4106720  65.9364250  55.2151430  61.1769990  65.8245610  55.7776860
  60.4881410  65.2402220  54.5628200  59.1053480  63.3689320  55.8984320
  59.1857070  62.4216830  56.0101720  59.9973230  63.6996200  56.0044980
  56.7913670  69.5858280  58.8760370  55.8653450  69.8279420  58.8665780
  57.2570100  70.4132540  58.7545120  63.5347900  67.9118430  54.6886780
  63.4298540  67.2970780  55.4148160  63.3672120  67.3884320  53.9049790
  66.7750630  66.9738460  55.2928770  66.2260730  67.4207760  55.9371510
  67.3969890  66.4687710  55.8166440  62.4425750  65.9329380  57.1894070
  62.8642170  65.7669250  58.0325460  62.5676590  65.1229610  56.6949210
  64.9553390  64.9566990  54.4371170  65.4759050  64.2416010  54.0712320
  65.6021790  65.5952860  54.7371680  63.8586910  57.4361540  67.1089730
  63.4104210  57.4585800  66.2635280  63.2252110  57.0380560  67.7060030
  64.2646460  66.3315870  67.7302170  64.6834570  67.1748600  67.5578410
  63.3455090  66.4687910  67.5008950  68.9398260  64.6169240  67.6902520
  68.4133480  65.1411860  67.0867660  69.2829600  65.2496630  68.3212250
  61.3384650  62.0062610  54.1352230  61.1373710  61.1429970  54.4965570
  61.1676700  61.9195970  53.1973830  68.8172960  56.8170840  56.6639110
  69.0975250  55.9738740  57.0198530  68.0438690  57.0493950  57.1777860
  60.1367450  59.1063230  54.1230110  60.4393350  59.1130660  53.2149260
  60.8762040  58.7561090  54.6197770  63.3552380  58.0497850  55.1086310
  63.0074380  57.3721840  54.5288760  63.5565150  57.5887360  55.9229700
  59.1597580  68.4105650  54.9559910  59.5972450  68.9535320  55.6117490
  59.6445310  67.5852600  54.9656250  56.3743380  71.1994680  62.4080170
  56.7046390  70.3315740  62.1758810  56.8034380  71.4053200  63.2385130
  60.9705300  69.5303690  60.0682140  60.6700840  69.4068660  60.9686050
  60.8642790  68.6712280  59.6597870  56.6958020  64.5785500  61.5050680
  56.0406860  64.3097140  60.8610380  57.5335970  64.4689980  61.0552660
  71.1847410  68.2934250  67.5315270  70.3707250  68.7231410  67.7941060
  71.5921610  68.9052660  66.9184320  69.6448460  59.3726790  55.7269170
  70.0633340  59.1857770  54.8865830  69.3384520  58.5205840  56.0372100
  57.7333950  64.9638070  66.0454020  58.1006990  64.8765470  66.9250040
  57.1644770  64.2004620  65.9460880  55.9096100  61.7884430  57.4476010
  55.0060180  62.0514630  57.2727670  56.3936720  62.0595600  56.6675970
  58.4523310  60.8449970  55.3570390  59.1615010  60.4233190  54.8717670
  57.7363250  60.9125200  54.7253740  58.0997470  56.8989300  54.3973040
  58.8225600  57.4398240  54.7154260  58.3721990  56.6252720  53.5214580
  57.7889660  56.1495490  64.2995660  58.4365850  55.5992870  63.8590820
  58.2091500  56.4038640  65.1211470  57.5421660  56.3051160  67.0420980
  57.1936480  56.7614980  67.8079160  57.2109360  55.4108290  67.1243410
  62.8492060  71.0330350  66.8083890  62.6083420  71.3004910  65.9214410
  63.7894700  71.2036080  66.8634750  68.4329080  55.7165240  66.5301980
  67.5588920  56.0500350  66.3274910  68.3239830  55.2438420  67.3553850
  69.3401060  57.9236110  67.9143700  69.0114420  57.1087870  67.5345430
  70.2883360  57.8805920  67.7909390  58.6186290  69.7891390  67.2779990
  57.8920350  69.1696680  67.2105940  58.6795440  70.1832000  66.4078070
  66.1803900  56.6335080  65.4694890  65.3975690  57.1080580  65.7491650
  65.8866830  55.7289910  65.3608070  70.7324970  57.3358180  63.5143980
  71.1733060  57.2803280  62.6665580  70.4632560  58.2516190  63.5854160
  57.5244310  56.9382560  57.9908610  58.2823670  57.0511440  57.4172640
  57.0621480  57.7751760  57.9452040  64.0658120  59.0521830  60.9810920
  63.2532630  58.6778720  60.6406800  64.5699760  58.2966910  61.2832110
  68.5683100  55.7164280  62.2193990  69.1712470  56.2884490  62.6942510
  67.8276090  56.2803720  61.9967890  71.7117700  56.1185840  57.4934270
  71.9068330  57.0169290  57.7601700  70.9247570  55.8872920  57.9867220
  59.8969460  57.4646610  56.5310580  60.4262220  56.6776410  56.4018530
  60.5297780  58.1437800  56.7646110  62.0907300  57.2021750  59.5855970
  61.4610040  56.5009060  59.7526100  61.5512440  57.9625880  59.3689130
  60.2686750  69.8646120  56.8122470  59.6395630  70.3331220  57.3608300
  60.3834580  69.0195340  57.2468660  67.7236470  63.9151780  42.9623670
  67.6430520  63.0006390  42.6915380  67.3100890  64.4118850  42.2563380
  65.8554510  65.6930800  44.8432940  65.0796610  65.2131240  45.1331510
  66.5067440  65.0136450  44.6689100  59.8720340  66.0050610  45.7208700
  59.0405220  65.7499320  46.1205210  60.4801320  66.0761380  46.4566620
  69.8761940  70.0990990  43.6232070  69.4143470  69.3278230  43.9519240
  70.6887490  70.1257060  44.1284520  59.8521600  70.0390700  45.9166720
  60.1549640  69.1488440  45.7376940  60.5965190  70.5960920  45.6888970
  58.2812290  60.9652500  39.5051090  57.3928990  61.3068470  39.4030970
  58.5653480  60.7652820  38.6131920  56.2445300  63.5658150  45.3890790
  56.8161410  62.7980350  45.3894430  56.2446840  63.8646910  44.4797400
  65.2963500  68.3687990  44.8503100  65.2271780  67.4277930  44.6892230
  66.0583360  68.4589400  45.4225670  57.4870170  58.9742510  47.1759720
  57.3073010  58.0768260  47.4562480  57.0850250  59.5214380  47.8506670
  66.3268670  61.1758370  45.0772030  66.7033490  60.3030250  44.9645700
  66.2288180  61.5117070  44.1862470  60.4573680  59.5484000  40.5389470
  60.5640430  60.4487730  40.8458230  59.5466040  59.5001970  40.2484120
  70.1092790  58.6708810  42.0100370  70.9302410  58.1805380  42.0525850
  70.1426870  59.2606470  42.7632210  58.1056840  61.4703010  45.7842060
  58.7866950  61.7341380  46.4029460  57.7904890  60.6303880  46.1180070
  62.2981410  62.5170370  44.8714650  62.8059630  63.0151340  45.5119670
  62.8294650  61.7405570  44.6954010  60.5817510  57.1568930  49.1378070
  60.5835950  57.6741320  48.3323970  59.7521820  56.6799110  49.1148000
  66.9688600  67.2688240  40.6367970  66.3505870  67.7337690  40.0730690
  67.4811850  67.9615720  41.0537480  61.8320360  66.7964110  47.3151570
  61.4989740  67.4233030  47.9572640  62.0087040  67.3225990  46.5353240
  70.3454270  60.6109190  44.7827910  69.6409840  60.8994080  45.3631020
  70.7066430  61.4209300  44.4227470  60.2632840  58.8678890  47.1448520
  60.6049650  59.7120940  46.8502390  59.3248650  59.0162630  47.2613860
  61.0439460  68.7644910  49.1300750  61.6613460  69.4395990  48.8485200
  60.1832580  69.1732890  49.0388250  56.3371800  67.9544770  38.0107600
  55.9599780  68.4431870  37.2792500  56.5944870  68.6270050  38.6414130
  63.9460730  56.3561160  43.4693110  64.2535710  55.8008050  42.7528610
  63.0161430  56.4905620  43.2866100  70.7921210  68.7944670  40.8490740
  70.6817540  67.8519000  40.9740160  70.7889460  69.1560310  41.7353500
  68.8961230  66.9758290  47.0883180  69.3130020  66.7618400  46.2536640
  69.6201050  67.2331080  47.6591800  66.3341490  64.4209990  40.2053230
  65.4070770  64.3547370  40.4341700  66.4866310  65.3590120  40.0908470
  66.3210570  60.6926990  37.2020390  65.3814240  60.8540950  37.2872850
  66.6393830  61.4112670  36.6556380  70.3638780  65.9830290  40.7088480
  69.7451200  65.6449840  40.0614780  70.3463230  65.3390050  41.4167670
  69.8065340  62.1614830  48.1254290  69.3936520  62.9868540  48.3794280
  69.0741290  61.5759870  47.9330650  61.9398130  64.9474730  42.9872960
  61.5355130  64.2351980  42.4918860  62.0261250  64.6027970  43.8761000
  62.4079830  68.6342290  45.1512170  62.1108120  68.0287760  44.4719950
  63.3579650  68.6719600  45.0401530  60.6526750  61.7217940  46.7672000
  61.2041340  61.8313280  45.9925250  61.1670260  62.0955540  47.4827230
  61.4998260  68.3723980  51.8019970  60.6026790  68.5963950  52.0493370
  61.5251130  68.4958920  50.8531370  68.5403480  65.2217100  37.7161230
  68.9796760  64.3839530  37.5699050  69.2531900  65.8546500  37.8025370
  60.3269480  65.2437300  50.3777340  60.1877250  66.1160100  50.7464740
  59.4450840  64.9010110  50.2325280  66.6498860  70.1613170  41.6842470
  67.0894770  70.9037500  41.2697860  66.5885750  70.4039740  42.6081430
  62.1249830  71.1859000  52.5862490  62.0965260  71.5901950  51.7190920
  61.9614800  70.2569360  52.4234090  58.6402760  63.8419710  40.4879610
  58.5200360  64.5681800  39.8760880  58.3303650  63.0722620  40.0107520
  56.2788130  67.0134850  46.2948250  56.3568550  67.1483620  45.3503970
  56.8929810  66.3050740  46.4876370  57.5235760  68.7135040  42.7054430
  57.1163840  68.8549630  41.8508030  58.4148770  68.4295200  42.5025640
  69.0195170  70.6569850  37.6003480  68.3260330  70.6547140  36.9405760
  69.7618030  70.2329170  37.1697650  56.3347650  68.0549020  48.8342710
  56.4978690  67.5854380  48.0162080  56.8000100  67.5472580  49.4991550
  61.1066420  57.1854780  43.8703280  60.6634570  57.9664320  43.5387800
  61.6651410  57.5084670  44.5774220  65.3936230  60.0523300  49.4738600
  64.9315600  60.2606320  50.2858540  64.9914340  59.2382650  49.1709270
  70.3940740  61.2732250  50.6035260  69.5434330  60.9738000  50.9244330
  70.2342530  61.5174260  49.6919080  67.4890450  62.7734000  52.7034050
  67.8143860  61.9397750  52.3636280  68.2770780  63.2962520  52.8512380
  64.2225240  56.8065480  38.7509110  63.5979420  56.8025350  39.4762420
  64.1355360  55.9396440  38.3545080  63.1442320  57.7302110  45.7292880
  63.4414650  58.6364940  45.6484900  63.6927880  57.2420890  45.1152450
  60.8980640  62.3088350  41.5984530  60.6721560  62.0925520  42.5031150
  60.1173170  62.7416810  41.2530500  68.1278400  62.3151720  40.1975180
  67.5287290  63.0387520  40.0138800  68.6758010  62.2528500  39.4151630
  63.3379850  63.2073930  52.2644800  63.2423450  62.2668660  52.1145200
  64.1811830  63.4289000  51.8692870  66.7343270  60.9515260  42.2278460
  67.1272840  61.2687460  41.4147150  67.0960120  60.0727140  42.3422980
  58.4690390  59.6187600  50.4178580  58.0753780  60.4662810  50.6251360
  57.7808790  58.9813970  50.6087220  65.0435440  59.7022570  53.4875320
  64.3533760  59.5094770  54.1221410  65.7867740  59.9857210  54.0199620
  55.7707440  57.5416060  44.4508660  55.4820490  58.1118920  45.1633640
  56.5153200  57.0620510  44.8139890  55.9577670  61.4836180  35.6611380
  55.8752340  62.4266940  35.8026370  55.6060730  61.3411090  34.7823730
  67.3198410  63.5421010  46.3229240  66.5879530  64.0507820  46.6719340
  66.9222750  62.7250990  46.0218020  63.7575800  60.2175210  44.7281730
  63.7611860  59.7765160  43.8786270  64.6526920  60.5392540  44.8353550
  59.6078180  60.1001700  43.6875940  59.2678230  60.5776930  44.4442990
  58.8455500  59.6466820  43.3277040  63.8195950  61.2187290  37.7188490
  63.9408770  61.1773770  38.6674310  63.4344460  62.0811440  37.5635220
  67.7824320  58.9954690  45.7352180  67.7997060  59.4463340  46.5794030
  67.5339900  58.0960330  45.9485620  62.8317450  63.5288430  37.1171790
  62.2634350  63.0806680  36.4907700  63.5406450  63.8881210  36.5836940
  71.2095070  56.4086870  51.5738560  71.5340840  55.6776530  52.0996540
  71.2451580  56.0900510  50.6719550  57.9086630  67.4300450  50.9938520
  57.5241420  66.7894120  51.5921480  58.2198820  68.1336570  51.5633250
  64.0583770  64.2776990  46.4747140  64.4253900  63.8035560  47.2208480
  63.8688830  65.1518560  46.8155480  56.9224260  59.0220680  42.6040610
  56.6371180  58.6576350  43.4419230  56.8603120  58.2901140  41.9903750
  61.8483140  63.3185630  48.7931350  61.5440210  64.1977610  49.0181710
  62.8029600  63.3785420  48.8288790  60.3764930  67.5246620  39.3898200
  59.6027190  66.9844240  39.2296920  61.1059560  67.0053230  39.0515960
  71.1352910  66.5211980  45.1824590  71.8552030  67.0167270  44.7920700
  70.9334730  65.8429870  44.5378460  66.5962850  57.9149940  39.3253980
  65.7827460  57.4163110  39.2499290  66.4024800  58.7548190  38.9090330
  66.5171710  66.5921040  51.0693590  66.4509020  65.6716710  50.8151180
  65.8876850  66.6896480  51.7838230  69.3111240  62.2869590  37.6216140
  70.1990860  62.5986820  37.4467480  69.2816330  61.4141840  37.2296720
  60.4202330  67.1927000  43.0277010  60.9381000  66.3895260  42.9733900
  59.9686350  67.1306140  43.8693840  65.3071830  68.4593280  38.3004310
  65.6487530  69.2035510  37.8047630  64.4784540  68.7724400  38.6629140
  57.9046870  64.1588370  49.9402710  57.5461810  64.8242220  50.5276050
  57.6101430  63.3271920  50.3115330  61.1059990  64.6172610  52.8242260
  60.8060130  64.7629790  51.9270080  61.8771230  64.0577900  52.7315650
  66.4488440  69.4141610  50.8197390  66.4632980  68.4822570  50.6016300
  65.7413540  69.5001370  51.4587160  68.1899240  67.7809120  43.6649820
  68.5423060  67.1837250  43.0051190  67.3061570  67.4553350  43.8358070
  64.2762520  68.5406810  41.0720230  64.9633650  69.0876020  41.4527820
  63.4894940  69.0847540  41.1069840  56.4154920  64.1579630  36.5637310
  57.2849770  64.4404430  36.8473230  55.9245240  64.9715500  36.4486120
  63.5789730  65.5452840  40.6845590  64.0352510  66.3558090  40.9105780
  63.2277940  65.2275980  41.5164080  65.8822340  71.0559180  47.9137890
  66.5264560  71.2618560  48.5911310  66.2451780  70.2947580  47.4608740
  59.4801510  55.8890490  41.1568110  59.3516140  55.8808390  42.1053030
  58.6563530  56.2273580  40.8059120  67.1554420  69.0591530  46.6315340
  67.7976650  68.3584690  46.7447510  67.6803770  69.8389970  46.4512230
  71.0010140  69.3440150  36.3554480  70.7747720  68.6270590  36.9479120
  70.6106340  69.0952590  35.5176230  68.9292040  69.8586430  49.8351400
  69.2648280  70.4453120  50.5129320  68.0092380  69.7279140  50.0649190
  56.4795440  57.6481610  50.6174810  55.7653960  57.8478530  51.2227420
  56.8990480  56.8721180  50.9889610  70.5826390  67.2612090  38.0168640
  70.2948090  67.7224780  38.8046520  71.3778560  66.8009860  38.2852860
  64.7580620  69.9077760  53.0039460  64.4377490  69.1887000  53.5485150
  64.0838980  70.5832830  53.0775520  62.7994790  70.7538210  37.9472610
  62.7904890  71.4867900  37.3317120  61.8793150  70.5069790  38.0399570
  58.4001430  65.9753100  38.6919370  57.7929380  66.7152000  38.7014670
  58.8750780  66.0652460  37.8657570  67.9734220  60.1403920  48.3676260
  68.3415040  59.3199130  48.6955830  67.1132420  60.2005810  48.7831910
  71.3396250  59.0960860  39.1763820  70.7109410  59.2006530  38.4622050
  70.8448170  59.3157640  39.9657700  65.7854390  70.8166450  36.6097800
  65.8866370  70.6130440  35.6799780  64.8856130  70.5624730  36.8145580
  63.3080280  61.3746810  40.5921700  62.5996430  61.8433150  41.0335310
  63.5924760  60.7168820  41.2266890  64.9336210  62.7943510  48.5914230
  65.4321460  63.2689330  49.2566080  65.0759160  61.8707030  48.7984260
  67.3395710  58.0997470  42.0317490  67.2163490  58.1183600  41.0827000
  68.2880270  58.1476410  42.1515890  61.5115300  59.6831890  37.9672410
  62.3605830  60.1202040  37.9012600  61.1446570  59.9952150  38.7944470
  70.4325080  64.2544650  42.8803980  69.4915220  64.2694880  43.0551670
  70.7469150  63.4680610  43.3264280  60.4106720  65.9364250  36.4407940
  61.1769990  65.8245610  37.0033370  60.4881410  65.2402220  35.7884710
  59.1053480  63.3689320  37.1240830  59.1857070  62.4216830  37.2358230
  59.9973230  63.6996200  37.2301490  56.7913670  69.5858280  40.1016880
  55.8653450  69.8279420  40.0922290  57.2570100  70.4132540  39.9801630
  67.7491100  68.8110650  53.3636360  67.1429260  68.8342250  52.6232110
  67.4445210  68.0793690  53.9003610  56.6324280  65.1904240  52.3597000
  57.1363300  64.6111520  52.9313230  55.8931700  65.4744470  52.8973370
  63.5347900  67.9118430  35.9143290  63.4298540  67.2970780  36.6404670
  63.3672120  67.3884320  35.1306300  63.6862220  66.5975230  51.8932520
  62.9207890  67.1660230  51.8087190  63.8678180  66.3051440  51.0000750
  66.7750630  66.9738460  36.5185280  66.2260730  67.4207760  37.1628020
  67.3969890  66.4687710  37.0422950  70.8285570  68.3280560  52.4507540
  71.5695040  68.6656320  51.9475000  70.0658250  68.4972620  51.8977310
  58.6647360  63.3333830  53.2547070  58.7052700  63.0347700  54.1632300
  59.5192860  63.7341440  53.0954590  62.4425750  65.9329380  38.4150580
  62.8642170  65.7669250  39.2581970  62.5676590  65.1229610  37.9205720
  60.6053170  61.9125930  51.2221560  60.0749630  61.4216880  50.5944900
  61.2741240  62.3410130  50.6879490  64.9553390  64.9566990  35.6627680
  65.4759050  64.2416010  35.2968830  65.6021790  65.5952860  35.9628190
  69.5031230  66.3795390  50.9862750  69.9172250  66.5340470  51.8353170
  68.5682230  66.5050610  51.1488530  69.9753400  63.7191550  52.9901900
  70.5574170  62.9643870  52.9022380  70.1515170  64.2498990  52.2133380
  61.0925470  58.8788300  51.3018850  60.9982340  58.2609050  50.5769720
  60.5122860  59.6054590  51.0748760  63.8586910  57.4361540  48.3346240
  63.4104210  57.4585800  47.4891790  63.2252110  57.0380560  48.9316540
  64.2646460  66.3315870  48.9558680  64.6834570  67.1748600  48.7834920
  63.3455090  66.4687910  48.7265460  66.6010360  64.0632050  50.3396520
  66.7206570  63.4673190  51.0791360  67.4604360  64.1001740  49.9197820
  68.9398260  64.6169240  48.9159030  68.4133480  65.1411860  48.3124170
  69.2829600  65.2496630  49.5468760  61.3384650  62.0062610  35.3608740
  61.1373710  61.1429970  35.7222080  61.1676700  61.9195970  34.4230340
  63.3679130  60.6053400  51.5972340  63.9578820  60.2969250  52.2850160
  62.5499370  60.1333150  51.7532240  68.1872560  60.2219210  51.8305360
  67.4988080  59.5600750  51.7655350  68.9078580  59.7757480  52.2753820
  68.8172960  56.8170840  37.8895620  69.0975250  55.9738740  38.2455040
  68.0438690  57.0493950  38.4034370  60.1367450  59.1063230  35.3486620
  60.4393350  59.1130660  34.4405770  60.8762040  58.7561090  35.8454280
  63.3552380  58.0497850  36.3342820  63.0074380  57.3721840  35.7545270
  63.5565150  57.5887360  37.1486210  59.1597580  68.4105650  36.1816420
  59.5972450  68.9535320  36.8374000  59.6445310  67.5852600  36.1912760
  56.3743380  71.1994680  43.6336680  56.7046390  70.3315740  43.4015320
  56.8034380  71.4053200  44.4641640  60.9705300  69.5303690  41.2938650
  60.6700840  69.4068660  42.1942560  60.8642790  68.6712280  40.8854380
  56.6958020  64.5785500  42.7307190  56.0406860  64.3097140  42.0866890
  57.5335970  64.4689980  42.2809170  71.1847410  68.2934250  48.7571780
  70.3707250  68.7231410  49.0197570  71.5921610  68.9052660  48.1440830
  69.6448460  59.3726790  36.9525680  70.0633340  59.1857770  36.1122340
  69.3384520  58.5205840  37.2628610  57.7333950  64.9638070  47.2710530
  58.1006990  64.8765470  48.1506550  57.1644770  64.2004620  47.1717390
  57.2849950  61.8747160  51.1768950  56.3906000  61.8413920  51.5162660
  57.8247500  62.0733950  51.9420200  70.9725880  58.6578880  53.0620700
  71.8496060  58.6662280  53.4454700  70.9846720  57.9209720  52.4513050
  55.9096100  61.7884430  38.6732520  55.0060180  62.0514630  38.4984180
  56.3936720  62.0595600  37.8932480  58.4523310  60.8449970  36.5826900
  59.1615010  60.4233190  36.0974180  57.7363250  60.9125200  35.9510250
  58.0997470  56.8989300  35.6229550  58.8225600  57.4398240  35.9410770
  58.3721990  56.6252720  34.7471090  57.7889660  56.1495490  45.5252170
  58.4365850  55.5992870  45.0847330  58.2091500  56.4038640  46.3467980
  57.5421660  56.3051160  48.2677490  57.1936480  56.7614980  49.0335670
  57.2109360  55.4108290  48.3499920  59.1486030  69.4770760  52.4330680
  59.1055660  69.1063670  53.3145140  59.2797040  70.4148330  52.5732500
  62.8492060  71.0330350  48.0340400  62.6083420  71.3004910  47.1470920
  63.7894700  71.2036080  48.0891260  65.0546480  57.4963040  51.7896910
  64.9935370  58.0884870  52.5392320  65.9946860  57.3889000  51.6447170
  67.6921040  57.1533100  51.4289200  68.3061450  57.4712390  50.7670280
  68.2370600  56.6681690  52.0485060  58.2142300  55.8327360  51.5428260
  58.7625290  55.6515410  50.7794370  58.2797610  55.0421470  52.0784570
  68.4329080  55.7165240  47.7558490  67.5588920  56.0500350  47.5531420
  68.3239830  55.2438420  48.5810360  69.3401060  57.9236110  49.1400210
  69.0114420  57.1087870  48.7601940  70.2883360  57.8805920  49.0165900
  58.6186290  69.7891390  48.5036500  57.8920350  69.1696680  48.4362450
  58.6795440  70.1832000  47.6334580  66.1803900  56.6335080  46.6951400
  65.3975690  57.1080580  46.9748160  65.8866830  55.7289910  46.5864580
  70.7324970  57.3358180  44.7400490  71.1733060  57.2803280  43.8922090
  70.4632560  58.2516190  44.8110670  57.5244310  56.9382560  39.2165120
  58.2823670  57.0511440  38.6429150  57.0621480  57.7751760  39.1708550
  64.0658120  59.0521830  42.2067430  63.2532630  58.6778720  41.8663310
  64.5699760  58.2966910  42.5088620  68.5683100  55.7164280  43.4450500
  69.1712470  56.2884490  43.9199020  67.8276090  56.2803720  43.2224400
  71.7117700  56.1185840  38.7190780  71.9068330  57.0169290  38.9858210
  70.9247570  55.8872920  39.2123730  59.8969460  57.4646610  37.7567090
  60.4262220  56.6776410  37.6275040  60.5297780  58.1437800  37.9902620
  62.0907300  57.2021750  40.8112480  61.4610040  56.5009060  40.9782610
  61.5512440  57.9625880  40.5945640  62.2162860  56.4805730  53.2464970
  61.9347130  56.9839330  52.4825790  62.5982560  55.6827480  52.8807100
  60.2686750  69.8646120  38.0378980  59.6395630  70.3331220  38.5864810
  60.3834580  69.0195340  38.4725170  68.8178320  55.8959310  53.8245440
  68.7043770  56.2153920  54.7196960  69.6348060  56.2971820  53.5282720
  67.7236470  63.9151780  24.1880180  67.6430520  63.0006390  23.9171890
  67.3100890  64.4118850  23.4819890  65.8554510  65.6930800  26.0689450
  65.0796610  65.2131240  26.3588020  66.5067440  65.0136450  25.8945610
  59.8720340  66.0050610  26.9465210  59.0405220  65.7499320  27.3461720
  60.4801320  66.0761380  27.6823130  69.8761940  70.0990990  24.8488580
  69.4143470  69.3278230  25.1775750  70.6887490  70.1257060  25.3541030
  59.8521600  70.0390700  27.1423230  60.1549640  69.1488440  26.9633450
  60.5965190  70.5960920  26.9145480  58.2812290  60.9652500  20.7307600
  57.3928990  61.3068470  20.6287480  58.5653480  60.7652820  19.8388430
  56.2445300  63.5658150  26.6147300  56.8161410  62.7980350  26.6150940
  56.2446840  63.8646910  25.7053910  65.2963500  68.3687990  26.0759610
  65.2271780  67.4277930  25.9148740  66.0583360  68.4589400  26.6482180
  57.4870170  58.9742510  28.4016230  57.3073010  58.0768260  28.6818990
  57.0850250  59.5214380  29.0763180  66.3268670  61.1758370  26.3028540
  66.7033490  60.3030250  26.1902210  66.2288180  61.5117070  25.4118980
  60.4573680  59.5484000  21.7645980  60.5640430  60.4487730  22.0714740
  59.5466040  59.5001970  21.4740630  70.1092790  58.6708810  23.2356880
  70.9302410  58.1805380  23.2782360  70.1426870  59.2606470  23.9888720
  58.1056840  61.4703010  27.0098570  58.7866950  61.7341380  27.6285970
  57.7904890  60.6303880  27.3436580  62.2981410  62.5170370  26.0971160
  62.8059630  63.0151340  26.7376180  62.8294650  61.7405570  25.9210520
  60.5817510  57.1568930  30.3634580  60.5835950  57.6741320  29.5580480
  59.7521820  56.6799110  30.3404510  66.9688600  67.2688240  21.8624480
  66.3505870  67.7337690  21.2987200  67.4811850  67.9615720  22.2793990
  61.8320360  66.7964110  28.5408080  61.4989740  67.4233030  29.1829150
  62.0087040  67.3225990  27.7609750  70.3454270  60.6109190  26.0084420
  69.6409840  60.8994080  26.5887530  70.7066430  61.4209300  25.6483980
  60.2632840  58.8678890  28.3705030  60.6049650  59.7120940  28.0758900
  59.3248650  59.0162630  28.4870370  61.0439460  68.7644910  30.3557260
  61.6613460  69.4395990  30.0741710  60.1832580  69.1732890  30.2644760
  56.3371800  67.9544770  19.2364110  55.9599780  68.4431870  18.5049010
  56.5944870  68.6270050  19.8670640  63.9460730  56.3561160  24.6949620
  64.2535710  55.8008050  23.9785120  63.0161430  56.4905620  24.5122610
  70.7921210  68.7944670  22.0747250  70.6817540  67.8519000  22.1996670
  70.7889460  69.1560310  22.9610010  68.8961230  66.9758290  28.3139690
  69.3130020  66.7618400  27.4793150  69.6201050  67.2331080  28.8848310
  66.3341490  64.4209990  21.4309740  65.4070770  64.3547370  21.6598210
  66.4866310  65.3590120  21.3164980  66.3210570  60.6926990  18.4276900
  65.3814240  60.8540950  18.5129360  66.6393830  61.4112670  17.8812890
  70.3638780  65.9830290  21.9344990  69.7451200  65.6449840  21.2871290
  70.3463230  65.3390050  22.6424180  69.8065340  62.1614830  29.3510800
  69.3936520  62.9868540  29.6050790  69.0741290  61.5759870  29.1587160
  61.9398130  64.9474730  24.2129470  61.5355130  64.2351980  23.7175370
  62.0261250  64.6027970  25.1017510  62.4079830  68.6342290  26.3768680
  62.1108120  68.0287760  25.6976460  63.3579650  68.6719600  26.2658040
  60.6526750  61.7217940  27.9928510  61.2041340  61.8313280  27.2181760
  61.1670260  62.0955540  28.7083740  61.4998260  68.3723980  33.0276480
  60.6026790  68.5963950  33.2749880  61.5251130  68.4958920  32.0787880
  68.5403480  65.2217100  18.9417740  68.9796760  64.3839530  18.7955560
  69.2531900  65.8546500  19.0281880  60.3269480  65.2437300  31.6033850
  60.1877250  66.1160100  31.9721250  59.4450840  64.9010110  31.4581790
  66.6498860  70.1613170  22.9098980  67.0894770  70.9037500  22.4954370
  66.5885750  70.4039740  23.8337940  62.1249830  71.1859000  33.8119000
  62.0965260  71.5901950  32.9447430  61.9614800  70.2569360  33.6490600
  58.6402760  63.8419710  21.7136120  58.5200360  64.5681800  21.1017390
  58.3303650  63.0722620  21.2364030  56.2788130  67.0134850  27.5204760
  56.3568550  67.1483620  26.5760480  56.8929810  66.3050740  27.7132880
  57.5235760  68.7135040  23.9310940  57.1163840  68.8549630  23.0764540
  58.4148770  68.4295200  23.7282150  69.0195170  70.6569850  18.8259990
  68.3260330  70.6547140  18.1662270  69.7618030  70.2329170  18.3954160
  56.3347650  68.0549020  30.0599220  56.4978690  67.5854380  29.2418590
  56.8000100  67.5472580  30.7248060  61.1066420  57.1854780  25.0959790
  60.6634570  57.9664320  24.7644310  61.6651410  57.5084670  25.8030730
  65.3936230  60.0523300  30.6995110  64.9315600  60.2606320  31.5115050
  64.9914340  59.2382650  30.3965780  70.3940740  61.2732250  31.8291770
  69.5434330  60.9738000  32.1500840  70.2342530  61.5174260  30.9175590
  67.4890450  62.7734000  33.9290560  67.8143860  61.9397750  33.5892790
  68.2770780  63.2962520  34.0768890  64.2225240  56.8065480  19.9765620
  63.5979420  56.8025350  20.7018930  64.1355360  55.9396440  19.5801590
  63.1442320  57.7302110  26.9549390  63.4414650  58.6364940  26.8741410
  63.6927880  57.2420890  26.3408960  60.8980640  62.3088350  22.8241040
  60.6721560  62.0925520  23.7287660  60.1173170  62.7416810  22.4787010
  68.1278400  62.3151720  21.4231690  67.5287290  63.0387520  21.2395310
  68.6758010  62.2528500  20.6408140  63.3379850  63.2073930  33.4901310
  63.2423450  62.2668660  33.3401710  64.1811830  63.4289000  33.0949380
  66.7343270  60.9515260  23.4534970  67.1272840  61.2687460  22.6403660
  67.0960120  60.0727140  23.5679490  58.4690390  59.6187600  31.6435090
  58.0753780  60.4662810  31.8507870  57.7808790  58.9813970  31.8343730
  65.0435440  59.7022570  34.7131830  64.3533760  59.5094770  35.3477920
  65.7867740  59.9857210  35.2456130  55.7707440  57.5416060  25.6765170
  55.4820490  58.1118920  26.3890150  56.5153200  57.0620510  26.0396400
  55.9577670  61.4836180  16.8867890  55.8752340  62.4266940  17.0282880
  55.6060730  61.3411090  16.0080240  67.3198410  63.5421010  27.5485750
  66.5879530  64.0507820  27.8975850  66.9222750  62.7250990  27.2474530
  63.7575800  60.2175210  25.9538240  63.7611860  59.7765160  25.1042780
  64.6526920  60.5392540  26.0610060  59.6078180  60.1001700  24.9132450
  59.2678230  60.5776930  25.6699500  58.8455500  59.6466820  24.5533550
  63.8195950  61.2187290  18.9445000  63.9408770  61.1773770  19.8930820
  63.4344460  62.0811440  18.7891730  67.7824320  58.9954690  26.9608690
  67.7997060  59.4463340  27.8050540  67.5339900  58.0960330  27.1742130
  62.8317450  63.5288430  18.3428300  62.2634350  63.0806680  17.7164210
  63.5406450  63.8881210  17.8093450  71.2095070  56.4086870  32.7995070
  71.5340840  55.6776530  33.3253050  71.2451580  56.0900510  31.8976060
  57.9086630  67.4300450  32.2195030  57.5241420  66.7894120  32.8177990
  58.2198820  68.1336570  32.7889760  64.0583770  64.2776990  27.7003650
  64.4253900  63.8035560  28.4464990  63.8688830  65.1518560  28.0411990
  56.9224260  59.0220680  23.8297120  56.6371180  58.6576350  24.6675740
  56.8603120  58.2901140  23.2160260  61.8483140  63.3185630  30.0187860
  61.5440210  64.1977610  30.2438220  62.8029600  63.3785420  30.0545300
  60.3764930  67.5246620  20.6154710  59.6027190  66.9844240  20.4553430
  61.1059560  67.0053230  20.2772470  71.1352910  66.5211980  26.4081100
  71.8552030  67.0167270  26.0177210  70.9334730  65.8429870  25.7634970
  66.5962850  57.9149940  20.5510490  65.7827460  57.4163110  20.4755800
  66.4024800  58.7548190  20.1346840  66.5171710  66.5921040  32.2950100
  66.4509020  65.6716710  32.0407690  65.8876850  66.6896480  33.0094740
  69.3111240  62.2869590  18.8472650  70.1990860  62.5986820  18.6723990
  69.2816330  61.4141840  18.4553230  60.4202330  67.1927000  24.2533520
  60.9381000  66.3895260  24.1990410  59.9686350  67.1306140  25.0950350
  65.3071830  68.4593280  19.5260820  65.6487530  69.2035510  19.0304140
  64.4784540  68.7724400  19.8885650  57.9046870  64.1588370  31.1659220
  57.5461810  64.8242220  31.7532560  57.6101430  63.3271920  31.5371840
  61.1059990  64.6172610  34.0498770  60.8060130  64.7629790  33.1526590
  61.8771230  64.0577900  33.9572160  66.4488440  69.4141610  32.0453900
  66.4632980  68.4822570  31.8272810  65.7413540  69.5001370  32.6843670
  68.1899240  67.7809120  24.8906330  68.5423060  67.1837250  24.2307700
  67.3061570  67.4553350  25.0614580  64.2762520  68.5406810  22.2976740
  64.9633650  69.0876020  22.6784330  63.4894940  69.0847540  22.3326350
  56.4154920  64.1579630  17.7893820  57.2849770  64.4404430  18.0729740
  55.9245240  64.9715500  17.6742630  63.5789730  65.5452840  21.9102100
  64.0352510  66.3558090  22.1362290  63.2277940  65.2275980  22.7420590
  65.8822340  71.0559180  29.1394400  66.5264560  71.2618560  29.8167820
  66.2451780  70.2947580  28.6865250  59.4801510  55.8890490  22.3824620
  59.3516140  55.8808390  23.3309540  58.6563530  56.2273580  22.0315630
  67.1554420  69.0591530  27.8571850  67.7976650  68.3584690  27.9704020
  67.6803770  69.8389970  27.6768740  71.0010140  69.3440150  17.5810990
  70.7747720  68.6270590  18.1735630  70.6106340  69.0952590  16.7432740
  68.9292040  69.8586430  31.0607910  69.2648280  70.4453120  31.7385830
  68.0092380  69.7279140  31.2905700  56.4795440  57.6481610  31.8431320
  55.7653960  57.8478530  32.4483930  56.8990480  56.8721180  32.2146120
  70.5826390  67.2612090  19.2425150  70.2948090  67.7224780  20.0303030
  71.3778560  66.8009860  19.5109370  64.7580620  69.9077760  34.2295970
  64.4377490  69.1887000  34.7741660  64.0838980  70.5832830  34.3032030
  62.7994790  70.7538210  19.1729120  62.7904890  71.4867900  18.5573630
  61.8793150  70.5069790  19.2656080  58.4001430  65.9753100  19.9175880
  57.7929380  66.7152000  19.9271180  58.8750780  66.0652460  19.0914080
  67.9734220  60.1403920  29.5932770  68.3415040  59.3199130  29.9212340
  67.1132420  60.2005810  30.0088420  71.3396250  59.0960860  20.4020330
  70.7109410  59.2006530  19.6878560  70.8448170  59.3157640  21.1914210
  65.7854390  70.8166450  17.8354310  65.8866370  70.6130440  16.9056290
  64.8856130  70.5624730  18.0402090  63.3080280  61.3746810  21.8178210
  62.5996430  61.8433150  22.2591820  63.5924760  60.7168820  22.4523400
  64.9336210  62.7943510  29.8170740  65.4321460  63.2689330  30.4822590
  65.0759160  61.8707030  30.0240770  67.3395710  58.0997470  23.2574000
  67.2163490  58.1183600  22.3083510  68.2880270  58.1476410  23.3772400
  61.5115300  59.6831890  19.1928920  62.3605830  60.1202040  19.1269110
  61.1446570  59.9952150  20.0200980  70.4325080  64.2544650  24.1060490
  69.4915220  64.2694880  24.2808180  70.7469150  63.4680610  24.5520790
  60.4106720  65.9364250  17.6664450  61.1769990  65.8245610  18.2289880
  60.4881410  65.2402220  17.0141220  59.1053480  63.3689320  18.3497340
  59.1857070  62.4216830  18.4614740  59.9973230  63.6996200  18.4558000
  56.7913670  69.5858280  21.3273390  55.8653450  69.8279420  21.3178800
  57.2570100  70.4132540  21.2058140  67.7491100  68.8110650  34.5892870
  67.1429260  68.8342250  33.8488620  67.4445210  68.0793690  35.1260120
  56.6324280  65.1904240  33.5853510  57.1363300  64.6111520  34.1569740
  55.8931700  65.4744470  34.1229880  63.5347900  67.9118430  17.1399800
  63.4298540  67.2970780  17.8661180  63.3672120  67.3884320  16.3562810
  63.6862220  66.5975230  33.1189030  62.9207890  67.1660230  33.0343700
  63.8678180  66.3051440  32.2257260  66.7750630  66.9738460  17.7441790
  66.2260730  67.4207760  18.3884530  67.3969890  66.4687710  18.2679460
  70.8285570  68.3280560  33.6764050  71.5695040  68.6656320  33.1731510
  70.0658250  68.4972620  33.1233820  58.6647360  63.3333830  34.4803580
  58.7052700  63.0347700  35.3888810  59.5192860  63.7341440  34.3211100
  62.4425750  65.9329380  19.6407090  62.8642170  65.7669250  20.4838480
  62.5676590  65.1229610  19.1462230  60.6053170  61.9125930  32.4478070
  60.0749630  61.4216880  31.8201410  61.2741240  62.3410130  31.9136000
  64.9553390  64.9566990  16.8884190  65.4759050  64.2416010  16.5225340
  65.6021790  65.5952860  17.1884700  69.5031230  66.3795390  32.2119260
  69.9172250  66.5340470  33.0609680  68.5682230  66.5050610  32.3745040
  69.9753400  63.7191550  34.2158410  70.5574170  62.9643870  34.1278890
  70.1515170  64.2498990  33.4389890  61.0925470  58.8788300  32.5275360
  60.9982340  58.2609050  31.8026230  60.5122860  59.6054590  32.3005270
  63.8586910  57.4361540  29.5602750  63.4104210  57.4585800  28.7148300
  63.2252110  57.0380560  30.1573050  64.2646460  66.3315870  30.1815190
  64.6834570  67.1748600  30.0091430  63.3455090  66.4687910  29.9521970
  66.6010360  64.0632050  31.5653030  66.7206570  63.4673190  32.3047870
  67.4604360  64.1001740  31.1454330  68.9398260  64.6169240  30.1415540
  68.4133480  65.1411860  29.5380680  69.2829600  65.2496630  30.7725270
  61.3384650  62.0062610  16.5865250  61.1373710  61.1429970  16.9478590
  61.1676700  61.9195970  15.6486850  63.3679130  60.6053400  32.8228850
  63.9578820  60.2969250  33.5106670  62.5499370  60.1333150  32.9788750
  68.1872560  60.2219210  33.0561870  67.4988080  59.5600750  32.9911860
  68.9078580  59.7757480  33.5010330  68.8172960  56.8170840  19.1152130
  69.0975250  55.9738740  19.4711550  68.0438690  57.0493950  19.6290880
  60.1367450  59.1063230  16.5743130  60.4393350  59.1130660  15.6662280
  60.8762040  58.7561090  17.0710790  63.3552380  58.0497850  17.5599330
  63.0074380  57.3721840  16.9801780  63.5565150  57.5887360  18.3742720
  59.1597580  68.4105650  17.4072930  59.5972450  68.9535320  18.0630510
  59.6445310  67.5852600  17.4169270  56.3743380  71.1994680  24.8593190
  56.7046390  70.3315740  24.6271830  56.8034380  71.4053200  25.6898150
  60.9705300  69.5303690  22.5195160  60.6700840  69.4068660  23.4199070
  60.8642790  68.6712280  22.1110890  56.6958020  64.5785500  23.9563700
  56.0406860  64.3097140  23.3123400  57.5335970  64.4689980  23.5065680
  71.1847410  68.2934250  29.9828290  70.3707250  68.7231410  30.2454080
  71.5921610  68.9052660  29.3697340  69.6448460  59.3726790  18.1782190
  70.0633340  59.1857770  17.3378850  69.3384520  58.5205840  18.4885120
  57.7333950  64.9638070  28.4967040  58.1006990  64.8765470  29.3763060
  57.1644770  64.2004620  28.3973900  57.2849950  61.8747160  32.4025460
  56.3906000  61.8413920  32.7419170  57.8247500  62.0733950  33.1676710
  70.9725880  58.6578880  34.2877210  71.8496060  58.6662280  34.6711210
  70.9846720  57.9209720  33.6769560  55.9096100  61.7884430  19.8989030
  55.0060180  62.0514630  19.7240690  56.3936720  62.0595600  19.1188990
  58.4523310  60.8449970  17.8083410  59.1615010  60.4233190  17.3230690
  57.7363250  60.9125200  17.1766760  58.0997470  56.8989300  16.8486060
  58.8225600  57.4398240  17.1667280  58.3721990  56.6252720  15.9727600
  57.7889660  56.1495490  26.7508680  58.4365850  55.5992870  26.3103840
  58.2091500  56.4038640  27.5724490  57.5421660  56.3051160  29.4934000
  57.1936480  56.7614980  30.2592180  57.2109360  55.4108290  29.5756430
  59.1486030  69.4770760  33.6587190  59.1055660  69.1063670  34.5401650
  59.2797040  70.4148330  33.7989010  62.8492060  71.0330350  29.2596910
  62.6083420  71.3004910  28.3727430  63.7894700  71.2036080  29.3147770
  65.0546480  57.4963040  33.0153420  64.9935370  58.0884870  33.7648830
  65.9946860  57.3889000  32.8703680  67.6921040  57.1533100  32.6545710
  68.3061450  57.4712390  31.9926790  68.2370600  56.6681690  33.2741570
  58.2142300  55.8327360  32.7684770  58.7625290  55.6515410  32.0050880
  58.2797610  55.0421470  33.3041080  68.4329080  55.7165240  28.9815000
  67.5588920  56.0500350  28.7787930  68.3239830  55.2438420  29.8066870
  69.3401060  57.9236110  30.3656720  69.0114420  57.1087870  29.9858450
  70.2883360  57.8805920  30.2422410  58.6186290  69.7891390  29.7293010
  57.8920350  69.1696680  29.6618960  58.6795440  70.1832000  28.8591090
  66.1803900  56.6335080  27.9207910  65.3975690  57.1080580  28.2004670
  65.8866830  55.7289910  27.8121090  70.7324970  57.3358180  25.9657000
  71.1733060  57.2803280  25.1178600  70.4632560  58.2516190  26.0367180
  57.5244310  56.9382560  20.4421630  58.2823670  57.0511440  19.8685660
  57.0621480  57.7751760  20.3965060  64.0658120  59.0521830  23.4323940
  63.2532630  58.6778720  23.0919820  64.5699760  58.2966910  23.7345130
  68.5683100  55.7164280  24.6707010  69.1712470  56.2884490  25.1455530
  67.8276090  56.2803720  24.4480910  71.7117700  56.1185840  19.9447290
  71.9068330  57.0169290  20.2114720  70.9247570  55.8872920  20.4380240
  59.8969460  57.4646610  18.9823600  60.4262220  56.6776410  18.8531550
  60.5297780  58.1437800  19.2159130  62.0907300  57.2021750  22.0368990
  61.4610040  56.5009060  22.2039120  61.5512440  57.9625880  21.8202150
  62.2162860  56.4805730  34.4721480  61.9347130  56.9839330  33.7082300
  62.5982560  55.6827480  34.1063610  60.2686750  69.8646120  19.2635490
  59.6395630  70.3331220  19.8121320  60.3834580  69.0195340  19.6981680
  68.8178320  55.8959310  35.0501950  68.7043770  56.2153920  35.9453470
  69.6348060  56.2971820  34.7539230  67.7236470  63.9151780   5.4136690
  67.6430520  63.0006390   5.1428400  67.3100890  64.4118850   4.7076400
  65.8554510  65.6930800   7.2945960  65.0796610  65.2131240   7.5844530
  66.5067440  65.0136450   7.1202120  59.8720340  66.0050610   8.1721720
  59.0405220  65.7499320   8.5718230  60.4801320  66.0761380   8.9079640
  69.8761940  70.0990990   6.0745090  69.4143470  69.3278230   6.4032260
  70.6887490  70.1257060   6.5797540  59.8521600  70.0390700   8.3679740
  60.1549640  69.1488440   8.1889960  60.5965190  70.5960920   8.1401990
  56.2445300  63.5658150   7.8403810  56.8161410  62.7980350   7.8407450
  56.2446840  63.8646910   6.9310420  65.2963500  68.3687990   7.3016120
  65.2271780  67.4277930   7.1405250  66.0583360  68.4589400   7.8738690
  57.4870170  58.9742510   9.6272740  57.3073010  58.0768260   9.9075500
  57.0850250  59.5214380  10.3019690  66.3268670  61.1758370   7.5285050
  66.7033490  60.3030250   7.4158720  66.2288180  61.5117070   6.6375490
  60.4573680  59.5484000   2.9902490  60.5640430  60.4487730   3.2971250
  59.5466040  59.5001970   2.6997140  70.1092790  58.6708810   4.4613390
  70.9302410  58.1805380   4.5038870  70.1426870  59.2606470   5.2145230
  58.1056840  61.4703010   8.2355080  58.7866950  61.7341380   8.8542480
  57.7904890  60.6303880   8.5693090  62.2981410  62.5170370   7.3227670
  62.8059630  63.0151340   7.9632690  62.8294650  61.7405570   7.1467030
  60.5817510  57.1568930  11.5891090  60.5835950  57.6741320  10.7836990
  59.7521820  56.6799110  11.5661020  66.9688600  67.2688240   3.0880990
  66.3505870  67.7337690   2.5243710  67.4811850  67.9615720   3.5050500
  61.8320360  66.7964110   9.7664590  61.4989740  67.4233030  10.4085660
  62.0087040  67.3225990   8.9866260  70.3454270  60.6109190   7.2340930
  69.6409840  60.8994080   7.8144040  70.7066430  61.4209300   6.8740490
  60.2632840  58.8678890   9.5961540  60.6049650  59.7120940   9.3015410
  59.3248650  59.0162630   9.7126880  61.0439460  68.7644910  11.5813770
  61.6613460  69.4395990  11.2998220  60.1832580  69.1732890  11.4901270
  63.9460730  56.3561160   5.9206130  64.2535710  55.8008050   5.2041630
  63.0161430  56.4905620   5.7379120  70.7921210  68.7944670   3.3003760
  70.6817540  67.8519000   3.4253180  70.7889460  69.1560310   4.1866520
  68.8961230  66.9758290   9.5396200  69.3130020  66.7618400   8.7049660
  69.6201050  67.2331080  10.1104820  66.3341490  64.4209990   2.6566250
  65.4070770  64.3547370   2.8854720  66.4866310  65.3590120   2.5421490
  70.3638780  65.9830290   3.1601500  69.7451200  65.6449840   2.5127800
  70.3463230  65.3390050   3.8680690  69.8065340  62.1614830  10.5767310
  69.3936520  62.9868540  10.8307300  69.0741290  61.5759870  10.3843670
  61.9398130  64.9474730   5.4385980  61.5355130  64.2351980   4.9431880
  62.0261250  64.6027970   6.3274020  62.4079830  68.6342290   7.6025190
  62.1108120  68.0287760   6.9232970  63.3579650  68.6719600   7.4914550
  60.6526750  61.7217940   9.2185020  61.2041340  61.8313280   8.4438270
  61.1670260  62.0955540   9.9340250  61.4998260  68.3723980  14.2532990
  60.6026790  68.5963950  14.5006390  61.5251130  68.4958920  13.3044390
  60.3269480  65.2437300  12.8290360  60.1877250  66.1160100  13.1977760
  59.4450840  64.9010110  12.6838300  66.6498860  70.1613170   4.1355490
  67.0894770  70.9037500   3.7210880  66.5885750  70.4039740   5.0594450
  62.1249830  71.1859000  15.0375510  62.0965260  71.5901950  14.1703940
  61.9614800  70.2569360  14.8747110  58.6402760  63.8419710   2.9392630
  58.5200360  64.5681800   2.3273900  58.3303650  63.0722620   2.4620540
  56.2788130  67.0134850   8.7461270  56.3568550  67.1483620   7.8016990
  56.8929810  66.3050740   8.9389390  57.5235760  68.7135040   5.1567450
  57.1163840  68.8549630   4.3021050  58.4148770  68.4295200   4.9538660
  56.3347650  68.0549020  11.2855730  56.4978690  67.5854380  10.4675100
  56.8000100  67.5472580  11.9504570  61.1066420  57.1854780   6.3216300
  60.6634570  57.9664320   5.9900820  61.6651410  57.5084670   7.0287240
  65.3936230  60.0523300  11.9251620  64.9315600  60.2606320  12.7371560
  64.9914340  59.2382650  11.6222290  70.3940740  61.2732250  13.0548280
  69.5434330  60.9738000  13.3757350  70.2342530  61.5174260  12.1432100
  67.4890450  62.7734000  15.1547070  67.8143860  61.9397750  14.8149300
  68.2770780  63.2962520  15.3025400  63.1442320  57.7302110   8.1805900
  63.4414650  58.6364940   8.0997920  63.6927880  57.2420890   7.5665470
  60.8980640  62.3088350   4.0497550  60.6721560  62.0925520   4.9544170
  60.1173170  62.7416810   3.7043520  68.1278400  62.3151720   2.6488200
  67.5287290  63.0387520   2.4651820  68.6758010  62.2528500   1.8664650
  63.3379850  63.2073930  14.7157820  63.2423450  62.2668660  14.5658220
  64.1811830  63.4289000  14.3205890  66.7343270  60.9515260   4.6791480
  67.1272840  61.2687460   3.8660170  67.0960120  60.0727140   4.7936000
  58.4690390  59.6187600  12.8691600  58.0753780  60.4662810  13.0764380
  57.7808790  58.9813970  13.0600240  65.0435440  59.7022570  15.9388340
  64.3533760  59.5094770  16.5734430  65.7867740  59.9857210  16.4712640
  55.7707440  57.5416060   6.9021680  55.4820490  58.1118920   7.6146660
  56.5153200  57.0620510   7.2652910  67.3198410  63.5421010   8.7742260
  66.5879530  64.0507820   9.1232360  66.9222750  62.7250990   8.4731040
  63.7575800  60.2175210   7.1794750  63.7611860  59.7765160   6.3299290
  64.6526920  60.5392540   7.2866570  59.6078180  60.1001700   6.1388960
  59.2678230  60.5776930   6.8956010  58.8455500  59.6466820   5.7790060
  67.7824320  58.9954690   8.1865200  67.7997060  59.4463340   9.0307050
  67.5339900  58.0960330   8.3998640  71.2095070  56.4086870  14.0251580
  71.5340840  55.6776530  14.5509560  71.2451580  56.0900510  13.1232570
  57.9086630  67.4300450  13.4451540  57.5241420  66.7894120  14.0434500
  58.2198820  68.1336570  14.0146270  64.0583770  64.2776990   8.9260160
  64.4253900  63.8035560   9.6721500  63.8688830  65.1518560   9.2668500
  56.9224260  59.0220680   5.0553630  56.6371180  58.6576350   5.8932250
  56.8603120  58.2901140   4.4416770  61.8483140  63.3185630  11.2444370
  61.5440210  64.1977610  11.4694730  62.8029600  63.3785420  11.2801810
  60.3764930  67.5246620   1.8411220  59.6027190  66.9844240   1.6809940
  61.1059560  67.0053230   1.5028980  71.1352910  66.5211980   7.6337610
  71.8552030  67.0167270   7.2433720  70.9334730  65.8429870   6.9891480
  66.5962850  57.9149940   1.7767000  65.7827460  57.4163110   1.7012310
  66.4024800  58.7548190   1.3603350  66.5171710  66.5921040  13.5206610
  66.4509020  65.6716710  13.2664200  65.8876850  66.6896480  14.2351250
  60.4202330  67.1927000   5.4790030  60.9381000  66.3895260   5.4246920
  59.9686350  67.1306140   6.3206860  57.9046870  64.1588370  12.3915730
  57.5461810  64.8242220  12.9789070  57.6101430  63.3271920  12.7628350
  61.1059990  64.6172610  15.2755280  60.8060130  64.7629790  14.3783100
  61.8771230  64.0577900  15.1828670  66.4488440  69.4141610  13.2710410
  66.4632980  68.4822570  13.0529320  65.7413540  69.5001370  13.9100180
  68.1899240  67.7809120   6.1162840  68.5423060  67.1837250   5.4564210
  67.3061570  67.4553350   6.2871090  64.2762520  68.5406810   3.5233250
  64.9633650  69.0876020   3.9040840  63.4894940  69.0847540   3.5582860
  63.5789730  65.5452840   3.1358610  64.0352510  66.3558090   3.3618800
  63.2277940  65.2275980   3.9677100  65.8822340  71.0559180  10.3650910
  66.5264560  71.2618560  11.0424330  66.2451780  70.2947580   9.9121760
  59.4801510  55.8890490   3.6081130  59.3516140  55.8808390   4.5566050
  58.6563530  56.2273580   3.2572140  67.1554420  69.0591530   9.0828360
  67.7976650  68.3584690   9.1960530  67.6803770  69.8389970   8.9025250
  68.9292040  69.8586430  12.2864420  69.2648280  70.4453120  12.9642340
  68.0092380  69.7279140  12.5162210  56.4795440  57.6481610  13.0687830
  55.7653960  57.8478530  13.6740440  56.8990480  56.8721180  13.4402630
  64.7580620  69.9077760  15.4552480  64.4377490  69.1887000  15.9998170
  64.0838980  70.5832830  15.5288540  67.9734220  60.1403920  10.8189280
  68.3415040  59.3199130  11.1468850  67.1132420  60.2005810  11.2344930
  63.3080280  61.3746810   3.0434720  62.5996430  61.8433150   3.4848330
  63.5924760  60.7168820   3.6779910  64.9336210  62.7943510  11.0427250
  65.4321460  63.2689330  11.7079100  65.0759160  61.8707030  11.2497280
  67.3395710  58.0997470   4.4830510  67.2163490  58.1183600   3.5340020
  68.2880270  58.1476410   4.6028910  70.4325080  64.2544650   5.3317000
  69.4915220  64.2694880   5.5064690  70.7469150  63.4680610   5.7777300
  56.7913670  69.5858280   2.5529900  55.8653450  69.8279420   2.5435310
  57.2570100  70.4132540   2.4314650  67.7491100  68.8110650  15.8149380
  67.1429260  68.8342250  15.0745130  67.4445210  68.0793690  16.3516630
  56.6324280  65.1904240  14.8110020  57.1363300  64.6111520  15.3826250
  55.8931700  65.4744470  15.3486390  63.6862220  66.5975230  14.3445540
  62.9207890  67.1660230  14.2600210  63.8678180  66.3051440  13.4513770
  70.8285570  68.3280560  14.9020560  71.5695040  68.6656320  14.3988020
  70.0658250  68.4972620  14.3490330  58.6647360  63.3333830  15.7060090
  58.7052700  63.0347700  16.6145320  59.5192860  63.7341440  15.5467610
  60.6053170  61.9125930  13.6734580  60.0749630  61.4216880  13.0457920
  61.2741240  62.3410130  13.1392510  69.5031230  66.3795390  13.4375770
  69.9172250  66.5340470  14.2866190  68.5682230  66.5050610  13.6001550
  69.9753400  63.7191550  15.4414920  70.5574170  62.9643870  15.3535400
  70.1515170  64.2498990  14.6646400  61.0925470  58.8788300  13.7531870
  60.9982340  58.2609050  13.0282740  60.5122860  59.6054590  13.5261780
  63.8586910  57.4361540  10.7859260  63.4104210  57.4585800   9.9404810
  63.2252110  57.0380560  11.3829560  64.2646460  66.3315870  11.4071700
  64.6834570  67.1748600  11.2347940  63.3455090  66.4687910  11.1778480
  66.6010360  64.0632050  12.7909540  66.7206570  63.4673190  13.5304380
  67.4604360  64.1001740  12.3710840  68.9398260  64.6169240  11.3672050
  68.4133480  65.1411860  10.7637190  69.2829600  65.2496630  11.9981780
  63.3679130  60.6053400  14.0485360  63.9578820  60.2969250  14.7363180
  62.5499370  60.1333150  14.2045260  68.1872560  60.2219210  14.2818380
  67.4988080  59.5600750  14.2168370  68.9078580  59.7757480  14.7266840
  56.3743380  71.1994680   6.0849700  56.7046390  70.3315740   5.8528340
  56.8034380  71.4053200   6.9154660  60.9705300  69.5303690   3.7451670
  60.6700840  69.4068660   4.6455580  60.8642790  68.6712280   3.3367400
  56.6958020  64.5785500   5.1820210  56.0406860  64.3097140   4.5379910
  57.5335970  64.4689980   4.7322190  71.1847410  68.2934250  11.2084800
  70.3707250  68.7231410  11.4710590  71.5921610  68.9052660  10.5953850
  57.7333950  64.9638070   9.7223550  58.1006990  64.8765470  10.6019570
  57.1644770  64.2004620   9.6230410  57.2849950  61.8747160  13.6281970
  56.3906000  61.8413920  13.9675680  57.8247500  62.0733950  14.3933220
  70.9725880  58.6578880  15.5133720  71.8496060  58.6662280  15.8967720
  70.9846720  57.9209720  14.9026070  57.7889660  56.1495490   7.9765190
  58.4365850  55.5992870   7.5360350  58.2091500  56.4038640   8.7981000
  57.5421660  56.3051160  10.7190510  57.1936480  56.7614980  11.4848690
  57.2109360  55.4108290  10.8012940  59.1486030  69.4770760  14.8843700
  59.1055660  69.1063670  15.7658160  59.2797040  70.4148330  15.0245520
  62.8492060  71.0330350  10.4853420  62.6083420  71.3004910   9.5983940
  63.7894700  71.2036080  10.5404280  65.0546480  57.4963040  14.2409930
  64.9935370  58.0884870  14.9905340  65.9946860  57.3889000  14.0960190
  67.6921040  57.1533100  13.8802220  68.3061450  57.4712390  13.2183300
  68.2370600  56.6681690  14.4998080  58.2142300  55.8327360  13.9941280
  58.7625290  55.6515410  13.2307390  58.2797610  55.0421470  14.5297590
  68.4329080  55.7165240  10.2071510  67.5588920  56.0500350  10.0044440
  68.3239830  55.2438420  11.0323380  69.3401060  57.9236110  11.5913230
  69.0114420  57.1087870  11.2114960  70.2883360  57.8805920  11.4678920
  58.6186290  69.7891390  10.9549520  57.8920350  69.1696680  10.8875470
  58.6795440  70.1832000  10.0847600  66.1803900  56.6335080   9.1464420
  65.3975690  57.1080580   9.4261180  65.8866830  55.7289910   9.0377600
  70.7324970  57.3358180   7.1913510  71.1733060  57.2803280   6.3435110
  70.4632560  58.2516190   7.2623690  64.0658120  59.0521830   4.6580450
  63.2532630  58.6778720   4.3176330  64.5699760  58.2966910   4.9601640
  68.5683100  55.7164280   5.8963520  69.1712470  56.2884490   6.3712040
  67.8276090  56.2803720   5.6737420  62.0907300  57.2021750   3.2625500
  61.4610040  56.5009060   3.4295630  61.5512440  57.9625880   3.0458660
  62.2162860  56.4805730  15.6977990  61.9347130  56.9839330  14.9338810
  62.5982560  55.6827480  15.3320120  68.8178320  55.8959310  16.2758460
  68.7043770  56.2153920  17.1709980  69.6348060  56.2971820  15.9795740
  67.7236470  45.1408290  61.7367160  67.6430520  44.2262900  61.4658870
  67.3100890  45.6375360  61.0306870  65.8554510  46.9187310  63.6176430
  65.0796610  46.4387750  63.9075000  66.5067440  46.2392960  63.4432590
  59.8720340  47.2307120  64.4952190  59.0405220  46.9755830  64.8948700
  60.4801320  47.3017890  65.2310110  69.8761940  51.3247500  62.3975560
  69.4143470  50.5534740  62.7262730  70.6887490  51.3513570  62.9028010
  59.8521600  51.2647210  64.6910210  60.1549640  50.3744950  64.5120430
  60.5965190  51.8217430  64.4632460  58.2812290  42.1909010  58.2794580
  57.3928990  42.5324980  58.1774460  58.5653480  41.9909330  57.3875410
  56.2445300  44.7914660  64.1634280  56.8161410  44.0236860  64.1637920
  56.2446840  45.0903420  63.2540890  66.1025250  53.6105510  62.0179550
  65.4836690  54.0663010  61.4473990  66.9577030  53.7656970  61.6169250
  65.2963500  49.5944500  63.6246590  65.2271780  48.6534440  63.4635720
  66.0583360  49.6845910  64.1969160  57.4870170  40.1999020  65.9503210
  57.3073010  39.3024770  66.2305970  57.0850250  40.7470890  66.6250160
  66.3268670  42.4014880  63.8515520  66.7033490  41.5286760  63.7389190
  66.2288180  42.7373580  62.9605960  60.4573680  40.7740510  59.3132960
  60.5640430  41.6744240  59.6201720  59.5466040  40.7258480  59.0227610
  70.1092790  39.8965320  60.7843860  70.9302410  39.4061890  60.8269340
  70.1426870  40.4862980  61.5375700  58.1056840  42.6959520  64.5585550
  58.7866950  42.9597890  65.1772950  57.7904890  41.8560390  64.8923560
  62.2981410  43.7426880  63.6458140  62.8059630  44.2407850  64.2863160
  62.8294650  42.9662080  63.4697500  60.5817510  38.3825440  67.9121560
  60.5835950  38.8997830  67.1067460  59.7521820  37.9055620  67.8891490
  66.9688600  48.4944750  59.4111460  66.3505870  48.9594200  58.8474180
  67.4811850  49.1872230  59.8280970  61.8320360  48.0220620  66.0895060
  61.4989740  48.6489540  66.7316130  62.0087040  48.5482500  65.3096730
  70.3454270  41.8365700  63.5571400  69.6409840  42.1250590  64.1374510
  70.7066430  42.6465810  63.1970960  60.2632840  40.0935400  65.9192010
  60.6049650  40.9377450  65.6245880  59.3248650  40.2419140  66.0357350
  61.0439460  49.9901420  67.9044240  61.6613460  50.6652500  67.6228690
  60.1832580  50.3989400  67.8131740  56.3371800  49.1801280  56.7851090
  55.9599780  49.6688380  56.0535990  56.5944870  49.8526560  57.4157620
  63.9460730  37.5817670  62.2436600  64.2535710  37.0264560  61.5272100
  63.0161430  37.7162130  62.0609590  69.4975790  53.2984960  64.5344060
  69.5102950  52.8947250  63.6666320  68.9451010  54.0732250  64.4305490
  70.7921210  50.0201180  59.6234230  70.6817540  49.0775510  59.7483650
  70.7889460  50.3816820  60.5096990  68.8961230  48.2014800  65.8626670
  69.3130020  47.9874910  65.0280130  69.6201050  48.4587590  66.4335290
  66.3341490  45.6466500  58.9796720  65.4070770  45.5803880  59.2085190
  66.4866310  46.5846630  58.8651960  66.3210570  41.9183500  55.9763880
  65.3814240  42.0797460  56.0616340  66.6393830  42.6369180  55.4299870
  70.3638780  47.2086800  59.4831970  69.7451200  46.8706350  58.8358270
  70.3463230  46.5646560  60.1911160  69.8065340  43.3871340  66.8997780
  69.3936520  44.2125050  67.1537770  69.0741290  42.8016380  66.7074140
  61.9398130  46.1731240  61.7616450  61.5355130  45.4608490  61.2662350
  62.0261250  45.8284480  62.6504490  62.4079830  49.8598800  63.9255660
  62.1108120  49.2544270  63.2463440  63.3579650  49.8976110  63.8145020
  60.6526750  42.9474450  65.5415490  61.2041340  43.0569790  64.7668740
  61.1670260  43.3212050  66.2570720  70.4965440  53.4330670  67.5878760
  70.0196000  54.2402860  67.3951370  69.8127230  52.7809000  67.7404970
  68.5403480  46.4473610  56.4904720  68.9796760  45.6096040  56.3442540
  69.2531900  47.0803010  56.5768860  66.6498860  51.3869680  60.4585960
  67.0894770  52.1294010  60.0441350  66.5885750  51.6296250  61.3824920
  58.6402760  45.0676220  59.2623100  58.5200360  45.7938310  58.6504370
  58.3303650  44.2979130  58.7851010  56.2788130  48.2391360  65.0691740
  56.3568550  48.3740130  64.1247460  56.8929810  47.5307250  65.2619860
  57.5235760  49.9391550  61.4797920  57.1163840  50.0806140  60.6251520
  58.4148770  49.6551710  61.2769130  69.3169040  54.3738800  57.8148970
  69.1570180  54.0841740  58.7130800  69.1515750  53.5978930  57.2794200
  61.7957420  54.1537330  59.5920590  61.6199900  53.2372870  59.3788390
  60.9413160  54.5124620  59.8318390  69.0195170  51.8826360  56.3746970
  68.3260330  51.8803650  55.7149250  69.7618030  51.4585680  55.9441140
  68.5845100  53.5089070  60.4495460  69.0402050  52.7278450  60.7634080
  68.9237620  54.2195890  60.9936640  56.3347650  49.2805530  67.6086200
  56.4978690  48.8110890  66.7905570  56.8000100  48.7729090  68.2735040
  61.1066420  38.4111290  62.6446770  60.6634570  39.1920830  62.3131290
  61.6651410  38.7341180  63.3517710  65.3936230  41.2779810  68.2482090
  64.9315600  41.4862830  69.0602030  64.9914340  40.4639160  67.9452760
  64.2225240  38.0321990  57.5252600  63.5979420  38.0281860  58.2505910
  64.1355360  37.1652950  57.1288570  63.1442320  38.9558620  64.5036370
  63.4414650  39.8621450  64.4228390  63.6927880  38.4677400  63.8895940
  60.8980640  43.5344860  60.3728020  60.6721560  43.3182030  61.2774640
  60.1173170  43.9673320  60.0273990  68.1278400  43.5408230  58.9718670
  67.5287290  44.2644030  58.7882290  68.6758010  43.4785010  58.1895120
  66.7343270  42.1771770  61.0021950  67.1272840  42.4943970  60.1890640
  67.0960120  41.2983650  61.1166470  55.7707440  38.7672570  63.2252150
  55.4820490  39.3375430  63.9377130  56.5153200  38.2877020  63.5883380
  55.9577670  42.7092690  54.4354870  55.8752340  43.6523450  54.5769860
  55.6060730  42.5667600  53.5567220  67.3198410  44.7677520  65.0972730
  66.5879530  45.2764330  65.4462830  66.9222750  43.9507500  64.7961510
  63.7575800  41.4431720  63.5025220  63.7611860  41.0021670  62.6529760
  64.6526920  41.7649050  63.6097040  59.6078180  41.3258210  62.4619430
  59.2678230  41.8033440  63.2186480  58.8455500  40.8723330  62.1020530
  63.8195950  42.4443800  56.4931980  63.9408770  42.4030280  57.4417800
  63.4344460  43.3067950  56.3378710  67.7824320  40.2211200  64.5095670
  67.7997060  40.6719850  65.3537520  67.5339900  39.3216840  64.7229110
  62.8317450  44.7544940  55.8915280  62.2634350  44.3063190  55.2651190
  63.5406450  45.1137720  55.3580430  64.0583770  45.5033500  65.2490630
  64.4253900  45.0292070  65.9951970  63.8688830  46.3775070  65.5898970
  56.9224260  40.2477190  61.3784100  56.6371180  39.8832860  62.2162720
  56.8603120  39.5157650  60.7647240  61.8483140  44.5442140  67.5674840
  61.5440210  45.4234120  67.7925200  62.8029600  44.6041930  67.6032280
  60.3764930  48.7503130  58.1641690  59.6027190  48.2100750  58.0040410
  61.1059560  48.2309740  57.8259450  71.1352910  47.7468490  63.9568080
  71.8552030  48.2423780  63.5664190  70.9334730  47.0686380  63.3121950
  66.5962850  39.1406450  58.0997470  65.7827460  38.6419620  58.0242780
  66.4024800  39.9804700  57.6833820  69.3111240  43.5126100  56.3959630
  70.1990860  43.8243330  56.2210970  69.2816330  42.6398350  56.0040210
  60.4202330  48.4183510  61.8020500  60.9381000  47.6151770  61.7477390
  59.9686350  48.3562650  62.6437330  65.3071830  49.6849790  57.0747800
  65.6487530  50.4292020  56.5791120  64.4784540  49.9980910  57.4372630
  68.1899240  49.0065630  62.4393310  68.5423060  48.4093760  61.7794680
  67.3061570  48.6809860  62.6101560  64.2762520  49.7663320  59.8463720
  64.9633650  50.3132530  60.2271310  63.4894940  50.3104050  59.8813330
  56.4154920  45.3836140  55.3380800  57.2849770  45.6660940  55.6216720
  55.9245240  46.1972010  55.2229610  63.5789730  46.7709350  59.4589080
  64.0352510  47.5814600  59.6849270  63.2277940  46.4532490  60.2907570
  65.8822340  52.2815690  66.6881380  66.5264560  52.4875070  67.3654800
  66.2451780  51.5204090  66.2352230  59.4801510  37.1147000  59.9311600
  59.3516140  37.1064900  60.8796520  58.6563530  37.4530090  59.5802610
  67.1554420  50.2848040  65.4058830  67.7976650  49.5841200  65.5191000
  67.6803770  51.0646480  65.2255720  71.0010140  50.5696660  55.1297970
  70.7747720  49.8527100  55.7222610  70.6106340  50.3209100  54.2919720
  56.7826170  54.5963520  55.9042430  57.1423810  55.1952860  55.2499700
  56.6418510  55.1423410  56.6777460  70.5826390  48.4868600  56.7912130
  70.2948090  48.9481290  57.5790010  71.3778560  48.0266370  57.0596350
  62.7994790  51.9794720  56.7216100  62.7904890  52.7124410  56.1060610
  61.8793150  51.7326300  56.8143060  58.4001430  47.2009610  57.4662860
  57.7929380  47.9408510  57.4758160  58.8750780  47.2908970  56.6401060
  67.9734220  41.3660430  67.1419750  68.3415040  40.5455640  67.4699320
  67.1132420  41.4262320  67.5575400  71.3396250  40.3217370  57.9507310
  70.7109410  40.4263040  57.2365540  70.8448170  40.5414150  58.7401190
  65.7854390  52.0422960  55.3841290  65.8866370  51.8386950  54.4543270
  64.8856130  51.7881240  55.5889070  63.3080280  42.6003320  59.3665190
  62.5996430  43.0689660  59.8078800  63.5924760  41.9425330  60.0010380
  64.9336210  44.0200020  67.3657720  65.4321460  44.4945840  68.0309570
  65.0759160  43.0963540  67.5727750  67.3395710  39.3253980  60.8060980
  67.2163490  39.3440110  59.8570490  68.2880270  39.3732920  60.9259380
  64.4272500  54.5609280  60.0788960  64.6814000  54.5230670  59.1568330
  63.4784980  54.4342610  60.0717210  61.5115300  40.9088400  56.7415900
  62.3605830  41.3458550  56.6756090  61.1446570  41.2208660  57.5687960
  70.4325080  45.4801160  61.6547470  69.4915220  45.4951390  61.8295160
  70.7469150  44.6937120  62.1007770  60.4106720  47.1620760  55.2151430
  61.1769990  47.0502120  55.7776860  60.4881410  46.4658730  54.5628200
  59.1053480  44.5945830  55.8984320  59.1857070  43.6473340  56.0101720
  59.9973230  44.9252710  56.0044980  59.9068190  54.7441220  63.0018860
  60.6430670  54.1956680  63.2727430  60.2909110  55.6097230  62.8624850
  56.7913670  50.8114790  58.8760370  55.8653450  51.0535930  58.8665780
  57.2570100  51.6389050  58.7545120  63.0170500  53.9171530  54.8244430
  63.8099110  54.2060360  54.3726220  62.4974850  53.4863700  54.1456910
  63.5347900  49.1374940  54.6886780  63.4298540  48.5227290  55.4148160
  63.3672120  48.6140830  53.9049790  66.7750630  48.1994970  55.2928770
  66.2260730  48.6464270  55.9371510  67.3969890  47.6944220  55.8166440
  62.4425750  47.1585890  57.1894070  62.8642170  46.9925760  58.0325460
  62.5676590  46.3486120  56.6949210  64.9553390  46.1823500  54.4371170
  65.4759050  45.4672520  54.0712320  65.6021790  46.8209370  54.7371680
  63.8586910  38.6618050  67.1089730  63.4104210  38.6842310  66.2635280
  63.2252110  38.2637070  67.7060030  64.2646460  47.5572380  67.7302170
  64.6834570  48.4005110  67.5578410  63.3455090  47.6944420  67.5008950
  68.9398260  45.8425750  67.6902520  68.4133480  46.3668370  67.0867660
  69.2829600  46.4753140  68.3212250  61.3384650  43.2319120  54.1352230
  61.1373710  42.3686480  54.4965570  61.1676700  43.1452480  53.1973830
  62.1153880  53.8625390  68.8459900  61.5774970  54.5871450  68.5268600
  62.3687840  53.3855730  68.0557240  68.8172960  38.0427350  56.6639110
  69.0975250  37.1995250  57.0198530  68.0438690  38.2750460  57.1777860
  60.1367450  40.3319740  54.1230110  60.4393350  40.3387170  53.2149260
  60.8762040  39.9817600  54.6197770  63.3552380  39.2754360  55.1086310
  63.0074380  38.5978350  54.5288760  63.5565150  38.8143870  55.9229700
  65.5201420  54.2635110  56.7272910  66.4152210  54.6020080  56.7491670
  65.5519050  53.5414520  56.0997190  59.1597580  49.6362160  54.9559910
  59.5972450  50.1791830  55.6117490  59.6445310  48.8109110  54.9656250
  56.3743380  52.4251190  62.4080170  56.7046390  51.5572250  62.1758810
  56.8034380  52.6309710  63.2385130  60.9705300  50.7560200  60.0682140
  60.6700840  50.6325170  60.9686050  60.8642790  49.8968790  59.6597870
  56.8633590  53.2921780  65.1461800  56.4264580  53.4722580  65.9785950
  57.4311270  54.0496400  65.0043520  56.6958020  45.8042010  61.5050680
  56.0406860  45.5353650  60.8610380  57.5335970  45.6946490  61.0552660
  71.1847410  49.5190760  67.5315270  70.3707250  49.9487920  67.7941060
  71.5921610  50.1309170  66.9184320  69.6448460  40.5983300  55.7269170
  70.0633340  40.4114280  54.8865830  69.3384520  39.7462350  56.0372100
  57.7333950  46.1894580  66.0454020  58.1006990  46.1021980  66.9250040
  57.1644770  45.4261130  65.9460880  55.9096100  43.0140940  57.4476010
  55.0060180  43.2771140  57.2727670  56.3936720  43.2852110  56.6675970
  58.4523310  42.0706480  55.3570390  59.1615010  41.6489700  54.8717670
  57.7363250  42.1381710  54.7253740  58.0997470  38.1245810  54.3973040
  58.8225600  38.6654750  54.7154260  58.3721990  37.8509230  53.5214580
  57.7889660  37.3752000  64.2995660  58.4365850  36.8249380  63.8590820
  58.2091500  37.6295150  65.1211470  71.2423460  54.2709360  61.0583540
  71.8382530  53.9493930  60.3817960  71.5001610  53.7981180  61.8496810
  57.5421660  37.5307670  67.0420980  57.1936480  37.9871490  67.8079160
  57.2109360  36.6364800  67.1243410  62.8492060  52.2586860  66.8083890
  62.6083420  52.5261420  65.9214410  63.7894700  52.4292590  66.8634750
  58.9874060  53.6489520  68.3271950  58.3934380  53.5174220  69.0661990
  58.9797900  52.8127660  67.8614050  68.4329080  36.9421750  66.5301980
  67.5588920  37.2756860  66.3274910  68.3239830  36.4694930  67.3553850
  69.3401060  39.1492620  67.9143700  69.0114420  38.3344380  67.5345430
  70.2883360  39.1062430  67.7909390  71.7935670  54.9204660  64.8881270
  71.3338640  55.6720470  64.5139290  71.1648130  54.2011130  64.8296070
  58.6186290  51.0147900  67.2779990  57.8920350  50.3953190  67.2105940
  58.6795440  51.4088510  66.4078070  62.2231390  53.2292900  64.0629400
  62.7396410  52.6180260  63.5377660  62.8728770  53.7321680  64.5540410
  64.9626890  54.1201390  64.8898380  65.2504700  53.8655690  64.0131390
  65.4750110  53.5678750  65.4803950  66.1803900  37.8591590  65.4694890
  65.3975690  38.3337090  65.7491650  65.8866830  36.9546420  65.3608070
  70.7324970  38.5614690  63.5143980  71.1733060  38.5059790  62.6665580
  70.4632560  39.4772700  63.5854160  56.9016290  54.3322290  60.4876750
  56.7338330  53.6992970  61.1858640  56.0350800  54.5381690  60.1370940
  57.5244310  38.1639070  57.9908610  58.2823670  38.2767950  57.4172640
  57.0621480  39.0008270  57.9452040  64.0658120  40.2778340  60.9810920
  63.2532630  39.9035230  60.6406800  64.5699760  39.5223420  61.2832110
  68.5683100  36.9420790  62.2193990  69.1712470  37.5141000  62.6942510
  67.8276090  37.5060230  61.9967890  71.7117700  37.3442350  57.4934270
  71.9068330  38.2425800  57.7601700  70.9247570  37.1129430  57.9867220
  58.5078990  53.0255520  57.9326890  57.9826610  53.4063550  57.2288850
  58.4323570  53.6506290  58.6536600  59.8969460  38.6903120  56.5310580
  60.4262220  37.9032920  56.4018530  60.5297780  39.3694310  56.7646110
  62.0907300  38.4278260  59.5855970  61.4610040  37.7265570  59.7526100
  61.5512440  39.1882390  59.3689130  61.1071960  54.9737900  56.8076140
  61.8390780  54.6897180  56.2600030  61.3665630  54.7351180  57.6975520
  60.2686750  51.0902630  56.8122470  59.6395630  51.5587730  57.3608300
  60.3834580  50.2451850  57.2468660  67.7236470  45.1408290  42.9623670
  67.6430520  44.2262900  42.6915380  67.3100890  45.6375360  42.2563380
  65.8554510  46.9187310  44.8432940  65.0796610  46.4387750  45.1331510
  66.5067440  46.2392960  44.6689100  59.8720340  47.2307120  45.7208700
  59.0405220  46.9755830  46.1205210  60.4801320  47.3017890  46.4566620
  69.8761940  51.3247500  43.6232070  69.4143470  50.5534740  43.9519240
  70.6887490  51.3513570  44.1284520  59.8521600  51.2647210  45.9166720
  60.1549640  50.3744950  45.7376940  60.5965190  51.8217430  45.6888970
  58.2812290  42.1909010  39.5051090  57.3928990  42.5324980  39.4030970
  58.5653480  41.9909330  38.6131920  56.2445300  44.7914660  45.3890790
  56.8161410  44.0236860  45.3894430  56.2446840  45.0903420  44.4797400
  66.1025250  53.6105510  43.2436060  65.4836690  54.0663010  42.6730500
  66.9577030  53.7656970  42.8425760  65.2963500  49.5944500  44.8503100
  65.2271780  48.6534440  44.6892230  66.0583360  49.6845910  45.4225670
  57.4870170  40.1999020  47.1759720  57.3073010  39.3024770  47.4562480
  57.0850250  40.7470890  47.8506670  66.3268670  42.4014880  45.0772030
  66.7033490  41.5286760  44.9645700  66.2288180  42.7373580  44.1862470
  60.4573680  40.7740510  40.5389470  60.5640430  41.6744240  40.8458230
  59.5466040  40.7258480  40.2484120  70.1092790  39.8965320  42.0100370
  70.9302410  39.4061890  42.0525850  70.1426870  40.4862980  42.7632210
  58.1056840  42.6959520  45.7842060  58.7866950  42.9597890  46.4029460
  57.7904890  41.8560390  46.1180070  62.2981410  43.7426880  44.8714650
  62.8059630  44.2407850  45.5119670  62.8294650  42.9662080  44.6954010
  60.5817510  38.3825440  49.1378070  60.5835950  38.8997830  48.3323970
  59.7521820  37.9055620  49.1148000  66.9688600  48.4944750  40.6367970
  66.3505870  48.9594200  40.0730690  67.4811850  49.1872230  41.0537480
  61.8320360  48.0220620  47.3151570  61.4989740  48.6489540  47.9572640
  62.0087040  48.5482500  46.5353240  70.3454270  41.8365700  44.7827910
  69.6409840  42.1250590  45.3631020  70.7066430  42.6465810  44.4227470
  60.2632840  40.0935400  47.1448520  60.6049650  40.9377450  46.8502390
  59.3248650  40.2419140  47.2613860  61.0439460  49.9901420  49.1300750
  61.6613460  50.6652500  48.8485200  60.1832580  50.3989400  49.0388250
  56.3371800  49.1801280  38.0107600  55.9599780  49.6688380  37.2792500
  56.5944870  49.8526560  38.6414130  63.9460730  37.5817670  43.4693110
  64.2535710  37.0264560  42.7528610  63.0161430  37.7162130  43.2866100
  69.4975790  53.2984960  45.7600570  69.5102950  52.8947250  44.8922830
  68.9451010  54.0732250  45.6562000  70.7921210  50.0201180  40.8490740
  70.6817540  49.0775510  40.9740160  70.7889460  50.3816820  41.7353500
  68.8961230  48.2014800  47.0883180  69.3130020  47.9874910  46.2536640
  69.6201050  48.4587590  47.6591800  66.3341490  45.6466500  40.2053230
  65.4070770  45.5803880  40.4341700  66.4866310  46.5846630  40.0908470
  66.3210570  41.9183500  37.2020390  65.3814240  42.0797460  37.2872850
  66.6393830  42.6369180  36.6556380  70.3638780  47.2086800  40.7088480
  69.7451200  46.8706350  40.0614780  70.3463230  46.5646560  41.4167670
  69.8065340  43.3871340  48.1254290  69.3936520  44.2125050  48.3794280
  69.0741290  42.8016380  47.9330650  61.9398130  46.1731240  42.9872960
  61.5355130  45.4608490  42.4918860  62.0261250  45.8284480  43.8761000
  62.4079830  49.8598800  45.1512170  62.1108120  49.2544270  44.4719950
  63.3579650  49.8976110  45.0401530  60.6526750  42.9474450  46.7672000
  61.2041340  43.0569790  45.9925250  61.1670260  43.3212050  47.4827230
  70.4965440  53.4330670  48.8135270  70.0196000  54.2402860  48.6207880
  69.8127230  52.7809000  48.9661480  61.4998260  49.5980490  51.8019970
  60.6026790  49.8220460  52.0493370  61.5251130  49.7215430  50.8531370
  68.5403480  46.4473610  37.7161230  68.9796760  45.6096040  37.5699050
  69.2531900  47.0803010  37.8025370  60.3269480  46.4693810  50.3777340
  60.1877250  47.3416610  50.7464740  59.4450840  46.1266620  50.2325280
  66.6498860  51.3869680  41.6842470  67.0894770  52.1294010  41.2697860
  66.5885750  51.6296250  42.6081430  62.1249830  52.4115510  52.5862490
  62.0965260  52.8158460  51.7190920  61.9614800  51.4825870  52.4234090
  58.6402760  45.0676220  40.4879610  58.5200360  45.7938310  39.8760880
  58.3303650  44.2979130  40.0107520  56.2788130  48.2391360  46.2948250
  56.3568550  48.3740130  45.3503970  56.8929810  47.5307250  46.4876370
  57.5235760  49.9391550  42.7054430  57.1163840  50.0806140  41.8508030
  58.4148770  49.6551710  42.5025640  67.3414640  54.0883460  49.6121480
  67.8559310  53.9991470  50.4143910  66.4983720  54.4343160  49.9049390
  69.3169040  54.3738800  39.0405480  69.1570180  54.0841740  39.9387310
  69.1515750  53.5978930  38.5050710  61.7957420  54.1537330  40.8177100
  61.6199900  53.2372870  40.6044900  60.9413160  54.5124620  41.0574900
  69.0195170  51.8826360  37.6003480  68.3260330  51.8803650  36.9405760
  69.7618030  51.4585680  37.1697650  68.5845100  53.5089070  41.6751970
  69.0402050  52.7278450  41.9890590  68.9237620  54.2195890  42.2193150
  56.3347650  49.2805530  48.8342710  56.4978690  48.8110890  48.0162080
  56.8000100  48.7729090  49.4991550  61.1066420  38.4111290  43.8703280
  60.6634570  39.1920830  43.5387800  61.6651410  38.7341180  44.5774220
  65.3936230  41.2779810  49.4738600  64.9315600  41.4862830  50.2858540
  64.9914340  40.4639160  49.1709270  70.3940740  42.4988760  50.6035260
  69.5434330  42.1994510  50.9244330  70.2342530  42.7430770  49.6919080
  67.4890450  43.9990510  52.7034050  67.8143860  43.1654260  52.3636280
  68.2770780  44.5219030  52.8512380  64.2225240  38.0321990  38.7509110
  63.5979420  38.0281860  39.4762420  64.1355360  37.1652950  38.3545080
  63.1442320  38.9558620  45.7292880  63.4414650  39.8621450  45.6484900
  63.6927880  38.4677400  45.1152450  60.8980640  43.5344860  41.5984530
  60.6721560  43.3182030  42.5031150  60.1173170  43.9673320  41.2530500
  68.1278400  43.5408230  40.1975180  67.5287290  44.2644030  40.0138800
  68.6758010  43.4785010  39.4151630  63.3379850  44.4330440  52.2644800
  63.2423450  43.4925170  52.1145200  64.1811830  44.6545510  51.8692870
  66.7343270  42.1771770  42.2278460  67.1272840  42.4943970  41.4147150
  67.0960120  41.2983650  42.3422980  58.4690390  40.8444110  50.4178580
  58.0753780  41.6919320  50.6251360  57.7808790  40.2070480  50.6087220
  65.0435440  40.9279080  53.4875320  64.3533760  40.7351280  54.1221410
  65.7867740  41.2113720  54.0199620  55.7707440  38.7672570  44.4508660
  55.4820490  39.3375430  45.1633640  56.5153200  38.2877020  44.8139890
  55.9577670  42.7092690  35.6611380  55.8752340  43.6523450  35.8026370
  55.6060730  42.5667600  34.7823730  67.3198410  44.7677520  46.3229240
  66.5879530  45.2764330  46.6719340  66.9222750  43.9507500  46.0218020
  63.7575800  41.4431720  44.7281730  63.7611860  41.0021670  43.8786270
  64.6526920  41.7649050  44.8353550  59.6078180  41.3258210  43.6875940
  59.2678230  41.8033440  44.4442990  58.8455500  40.8723330  43.3277040
  63.8195950  42.4443800  37.7188490  63.9408770  42.4030280  38.6674310
  63.4344460  43.3067950  37.5635220  67.7824320  40.2211200  45.7352180
  67.7997060  40.6719850  46.5794030  67.5339900  39.3216840  45.9485620
  62.8317450  44.7544940  37.1171790  62.2634350  44.3063190  36.4907700
  63.5406450  45.1137720  36.5836940  71.2095070  37.6343380  51.5738560
  71.5340840  36.9033040  52.0996540  71.2451580  37.3157020  50.6719550
  57.9086630  48.6556960  50.9938520  57.5241420  48.0150630  51.5921480
  58.2198820  49.3593080  51.5633250  64.0583770  45.5033500  46.4747140
  64.4253900  45.0292070  47.2208480  63.8688830  46.3775070  46.8155480
  56.9224260  40.2477190  42.6040610  56.6371180  39.8832860  43.4419230
  56.8603120  39.5157650  41.9903750  61.8483140  44.5442140  48.7931350
  61.5440210  45.4234120  49.0181710  62.8029600  44.6041930  48.8288790
  60.3764930  48.7503130  39.3898200  59.6027190  48.2100750  39.2296920
  61.1059560  48.2309740  39.0515960  71.1352910  47.7468490  45.1824590
  71.8552030  48.2423780  44.7920700  70.9334730  47.0686380  44.5378460
  66.5962850  39.1406450  39.3253980  65.7827460  38.6419620  39.2499290
  66.4024800  39.9804700  38.9090330  66.5171710  47.8177550  51.0693590
  66.4509020  46.8973220  50.8151180  65.8876850  47.9152990  51.7838230
  69.3111240  43.5126100  37.6216140  70.1990860  43.8243330  37.4467480
  69.2816330  42.6398350  37.2296720  60.4202330  48.4183510  43.0277010
  60.9381000  47.6151770  42.9733900  59.9686350  48.3562650  43.8693840
  65.3071830  49.6849790  38.3004310  65.6487530  50.4292020  37.8047630
  64.4784540  49.9980910  38.6629140  57.9046870  45.3844880  49.9402710
  57.5461810  46.0498730  50.5276050  57.6101430  44.5528430  50.3115330
  61.1059990  45.8429120  52.8242260  60.8060130  45.9886300  51.9270080
  61.8771230  45.2834410  52.7315650  66.4488440  50.6398120  50.8197390
  66.4632980  49.7079080  50.6016300  65.7413540  50.7257880  51.4587160
  68.1899240  49.0065630  43.6649820  68.5423060  48.4093760  43.0051190
  67.3061570  48.6809860  43.8358070  64.2762520  49.7663320  41.0720230
  64.9633650  50.3132530  41.4527820  63.4894940  50.3104050  41.1069840
  56.4154920  45.3836140  36.5637310  57.2849770  45.6660940  36.8473230
  55.9245240  46.1972010  36.4486120  63.5789730  46.7709350  40.6845590
  64.0352510  47.5814600  40.9105780  63.2277940  46.4532490  41.5164080
  65.8822340  52.2815690  47.9137890  66.5264560  52.4875070  48.5911310
  66.2451780  51.5204090  47.4608740  59.4801510  37.1147000  41.1568110
  59.3516140  37.1064900  42.1053030  58.6563530  37.4530090  40.8059120
  67.1554420  50.2848040  46.6315340  67.7976650  49.5841200  46.7447510
  67.6803770  51.0646480  46.4512230  71.0010140  50.5696660  36.3554480
  70.7747720  49.8527100  36.9479120  70.6106340  50.3209100  35.5176230
  68.9292040  51.0842940  49.8351400  69.2648280  51.6709630  50.5129320
  68.0092380  50.9535650  50.0649190  56.7826170  54.5963520  37.1298940
  57.1423810  55.1952860  36.4756210  56.6418510  55.1423410  37.9033970
  56.4795440  38.8738120  50.6174810  55.7653960  39.0735040  51.2227420
  56.8990480  38.0977690  50.9889610  70.5826390  48.4868600  38.0168640
  70.2948090  48.9481290  38.8046520  71.3778560  48.0266370  38.2852860
  56.7668030  52.8618380  51.6041340  56.8759150  51.9213120  51.4636730
  56.1148590  53.1273130  50.9555070  64.7580620  51.1334270  53.0039460
  64.4377490  50.4143510  53.5485150  64.0838980  51.8089340  53.0775520
  62.7994790  51.9794720  37.9472610  62.7904890  52.7124410  37.3317120
  61.8793150  51.7326300  38.0399570  58.4001430  47.2009610  38.6919370
  57.7929380  47.9408510  38.7014670  58.8750780  47.2908970  37.8657570
  67.9734220  41.3660430  48.3676260  68.3415040  40.5455640  48.6955830
  67.1132420  41.4262320  48.7831910  71.3396250  40.3217370  39.1763820
  70.7109410  40.4263040  38.4622050  70.8448170  40.5414150  39.9657700
  65.7854390  52.0422960  36.6097800  65.8866370  51.8386950  35.6799780
  64.8856130  51.7881240  36.8145580  63.3080280  42.6003320  40.5921700
  62.5996430  43.0689660  41.0335310  63.5924760  41.9425330  41.2266890
  64.9336210  44.0200020  48.5914230  65.4321460  44.4945840  49.2566080
  65.0759160  43.0963540  48.7984260  67.3395710  39.3253980  42.0317490
  67.2163490  39.3440110  41.0827000  68.2880270  39.3732920  42.1515890
  64.4272500  54.5609280  41.3045470  64.6814000  54.5230670  40.3824840
  63.4784980  54.4342610  41.2973720  61.5115300  40.9088400  37.9672410
  62.3605830  41.3458550  37.9012600  61.1446570  41.2208660  38.7944470
  70.4325080  45.4801160  42.8803980  69.4915220  45.4951390  43.0551670
  70.7469150  44.6937120  43.3264280  60.4106720  47.1620760  36.4407940
  61.1769990  47.0502120  37.0033370  60.4881410  46.4658730  35.7884710
  59.1053480  44.5945830  37.1240830  59.1857070  43.6473340  37.2358230
  59.9973230  44.9252710  37.2301490  59.9068190  54.7441220  44.2275370
  60.6430670  54.1956680  44.4983940  60.2909110  55.6097230  44.0881360
  56.7913670  50.8114790  40.1016880  55.8653450  51.0535930  40.0922290
  57.2570100  51.6389050  39.9801630  58.9126470  53.9287290  53.4160950
  59.7139200  54.2499340  53.8296350  58.3978290  53.5682870  54.1380860
  63.0170500  53.9171530  36.0500940  63.8099110  54.2060360  35.5982730
  62.4974850  53.4863700  35.3713420  67.7491100  50.0367160  53.3636360
  67.1429260  50.0598760  52.6232110  67.4445210  49.3050200  53.9003610
  69.1791470  53.7647450  51.9745770  70.1313220  53.6805470  51.9246010
  69.0319690  54.4289160  52.6479560  56.6324280  46.4160750  52.3597000
  57.1363300  45.8368030  52.9313230  55.8931700  46.7000980  52.8973370
  63.5347900  49.1374940  35.9143290  63.4298540  48.5227290  36.6404670
  63.3672120  48.6140830  35.1306300  63.6862220  47.8231740  51.8932520
  62.9207890  48.3916740  51.8087190  63.8678180  47.5307950  51.0000750
  66.7750630  48.1994970  36.5185280  66.2260730  48.6464270  37.1628020
  67.3969890  47.6944220  37.0422950  70.8285570  49.5537070  52.4507540
  71.5695040  49.8912830  51.9475000  70.0658250  49.7229130  51.8977310
  58.6647360  44.5590340  53.2547070  58.7052700  44.2604210  54.1632300
  59.5192860  44.9597950  53.0954590  62.4425750  47.1585890  38.4150580
  62.8642170  46.9925760  39.2581970  62.5676590  46.3486120  37.9205720
  60.6053170  43.1382440  51.2221560  60.0749630  42.6473390  50.5944900
  61.2741240  43.5666640  50.6879490  64.9553390  46.1823500  35.6627680
  65.4759050  45.4672520  35.2968830  65.6021790  46.8209370  35.9628190
  69.5031230  47.6051900  50.9862750  69.9172250  47.7596980  51.8353170
  68.5682230  47.7307120  51.1488530  69.9753400  44.9448060  52.9901900
  70.5574170  44.1900380  52.9022380  70.1515170  45.4755500  52.2133380
  61.0925470  40.1044810  51.3018850  60.9982340  39.4865560  50.5769720
  60.5122860  40.8311100  51.0748760  63.8586910  38.6618050  48.3346240
  63.4104210  38.6842310  47.4891790  63.2252110  38.2637070  48.9316540
  64.2646460  47.5572380  48.9558680  64.6834570  48.4005110  48.7834920
  63.3455090  47.6944420  48.7265460  66.6010360  45.2888560  50.3396520
  66.7206570  44.6929700  51.0791360  67.4604360  45.3258250  49.9197820
  68.9398260  45.8425750  48.9159030  68.4133480  46.3668370  48.3124170
  69.2829600  46.4753140  49.5468760  61.3384650  43.2319120  35.3608740
  61.1373710  42.3686480  35.7222080  61.1676700  43.1452480  34.4230340
  62.1153880  53.8625390  50.0716410  61.5774970  54.5871450  49.7525110
  62.3687840  53.3855730  49.2813750  63.3679130  41.8309910  51.5972340
  63.9578820  41.5225760  52.2850160  62.5499370  41.3589660  51.7532240
  68.1872560  41.4475720  51.8305360  67.4988080  40.7857260  51.7655350
  68.9078580  41.0013990  52.2753820  68.8172960  38.0427350  37.8895620
  69.0975250  37.1995250  38.2455040  68.0438690  38.2750460  38.4034370
  60.1367450  40.3319740  35.3486620  60.4393350  40.3387170  34.4405770
  60.8762040  39.9817600  35.8454280  64.9716090  55.0976600  50.3303060
  64.8974790  56.0011740  50.6375430  64.0694930  54.7788500  50.3025130
  63.3552380  39.2754360  36.3342820  63.0074380  38.5978350  35.7545270
  63.5565150  38.8143870  37.1486210  65.5201420  54.2635110  37.9529420
  66.4152210  54.6020080  37.9748180  65.5519050  53.5414520  37.3253700
  59.1597580  49.6362160  36.1816420  59.5972450  50.1791830  36.8374000
  59.6445310  48.8109110  36.1912760  56.3743380  52.4251190  43.6336680
  56.7046390  51.5572250  43.4015320  56.8034380  52.6309710  44.4641640
  60.9705300  50.7560200  41.2938650  60.6700840  50.6325170  42.1942560
  60.8642790  49.8968790  40.8854380  56.8633590  53.2921780  46.3718310
  56.4264580  53.4722580  47.2042460  57.4311270  54.0496400  46.2300030
  56.6958020  45.8042010  42.7307190  56.0406860  45.5353650  42.0866890
  57.5335970  45.6946490  42.2809170  71.1847410  49.5190760  48.7571780
  70.3707250  49.9487920  49.0197570  71.5921610  50.1309170  48.1440830
  69.6448460  40.5983300  36.9525680  70.0633340  40.4114280  36.1122340
  69.3384520  39.7462350  37.2628610  57.7333950  46.1894580  47.2710530
  58.1006990  46.1021980  48.1506550  57.1644770  45.4261130  47.1717390
  57.2849950  43.1003670  51.1768950  56.3906000  43.0670430  51.5162660
  57.8247500  43.2990460  51.9420200  70.9725880  39.8835390  53.0620700
  71.8496060  39.8918790  53.4454700  70.9846720  39.1466230  52.4513050
  55.9096100  43.0140940  38.6732520  55.0060180  43.2771140  38.4984180
  56.3936720  43.2852110  37.8932480  58.4523310  42.0706480  36.5826900
  59.1615010  41.6489700  36.0974180  57.7363250  42.1381710  35.9510250
  58.0997470  38.1245810  35.6229550  58.8225600  38.6654750  35.9410770
  58.3721990  37.8509230  34.7471090  57.7889660  37.3752000  45.5252170
  58.4365850  36.8249380  45.0847330  58.2091500  37.6295150  46.3467980
  71.2423460  54.2709360  42.2840050  71.8382530  53.9493930  41.6074470
  71.5001610  53.7981180  43.0753320  57.5421660  37.5307670  48.2677490
  57.1936480  37.9871490  49.0335670  57.2109360  36.6364800  48.3499920
  59.1486030  50.7027270  52.4330680  59.1055660  50.3320180  53.3145140
  59.2797040  51.6404840  52.5732500  62.8492060  52.2586860  48.0340400
  62.6083420  52.5261420  47.1470920  63.7894700  52.4292590  48.0891260
  65.0546480  38.7219550  51.7896910  64.9935370  39.3141380  52.5392320
  65.9946860  38.6145510  51.6447170  67.6921040  38.3789610  51.4289200
  68.3061450  38.6968900  50.7670280  68.2370600  37.8938200  52.0485060
  58.2142300  37.0583870  51.5428260  58.7625290  36.8771920  50.7794370
  58.2797610  36.2677980  52.0784570  58.9874060  53.6489520  49.5528460
  58.3934380  53.5174220  50.2918500  58.9797900  52.8127660  49.0870560
  68.4329080  36.9421750  47.7558490  67.5588920  37.2756860  47.5531420
  68.3239830  36.4694930  48.5810360  69.3401060  39.1492620  49.1400210
  69.0114420  38.3344380  48.7601940  70.2883360  39.1062430  49.0165900
  71.7935670  54.9204660  46.1137780  71.3338640  55.6720470  45.7395800
  71.1648130  54.2011130  46.0552580  58.6186290  51.0147900  48.5036500
  57.8920350  50.3953190  48.4362450  58.6795440  51.4088510  47.6334580
  62.2231390  53.2292900  45.2885910  62.7396410  52.6180260  44.7634170
  62.8728770  53.7321680  45.7796920  64.9626890  54.1201390  46.1154890
  65.2504700  53.8655690  45.2387900  65.4750110  53.5678750  46.7060460
  66.1803900  37.8591590  46.6951400  65.3975690  38.3337090  46.9748160
  65.8866830  36.9546420  46.5864580  70.7324970  38.5614690  44.7400490
  71.1733060  38.5059790  43.8922090  70.4632560  39.4772700  44.8110670
  56.9016290  54.3322290  41.7133260  56.7338330  53.6992970  42.4115150
  56.0350800  54.5381690  41.3627450  57.5244310  38.1639070  39.2165120
  58.2823670  38.2767950  38.6429150  57.0621480  39.0008270  39.1708550
  64.0658120  40.2778340  42.2067430  63.2532630  39.9035230  41.8663310
  64.5699760  39.5223420  42.5088620  68.5683100  36.9420790  43.4450500
  69.1712470  37.5141000  43.9199020  67.8276090  37.5060230  43.2224400
  71.7117700  37.3442350  38.7190780  71.9068330  38.2425800  38.9858210
  70.9247570  37.1129430  39.2123730  58.5078990  53.0255520  39.1583400
  57.9826610  53.4063550  38.4545360  58.4323570  53.6506290  39.8793110
  59.8969460  38.6903120  37.7567090  60.4262220  37.9032920  37.6275040
  60.5297780  39.3694310  37.9902620  62.0907300  38.4278260  40.8112480
  61.4610040  37.7265570  40.9782610  61.5512440  39.1882390  40.5945640
  65.0299250  55.0417490  53.4823090  65.9566560  54.8061760  53.5259050
  65.0149680  55.8689490  53.0009120  62.2162860  37.7062240  53.2464970
  61.9347130  38.2095840  52.4825790  62.5982560  36.9083990  52.8807100
  61.1071960  54.9737900  38.0332650  61.8390780  54.6897180  37.4856540
  61.3665630  54.7351180  38.9232030  60.2686750  51.0902630  38.0378980
  59.6395630  51.5587730  38.5864810  60.3834580  50.2451850  38.4725170
  68.8178320  37.1215820  53.8245440  68.7043770  37.4410430  54.7196960
  69.6348060  37.5228330  53.5282720  67.7236470  45.1408290  24.1880180
  67.6430520  44.2262900  23.9171890  67.3100890  45.6375360  23.4819890
  65.8554510  46.9187310  26.0689450  65.0796610  46.4387750  26.3588020
  66.5067440  46.2392960  25.8945610  59.8720340  47.2307120  26.9465210
  59.0405220  46.9755830  27.3461720  60.4801320  47.3017890  27.6823130
  69.8761940  51.3247500  24.8488580  69.4143470  50.5534740  25.1775750
  70.6887490  51.3513570  25.3541030  59.8521600  51.2647210  27.1423230
  60.1549640  50.3744950  26.9633450  60.5965190  51.8217430  26.9145480
  58.2812290  42.1909010  20.7307600  57.3928990  42.5324980  20.6287480
  58.5653480  41.9909330  19.8388430  56.2445300  44.7914660  26.6147300
  56.8161410  44.0236860  26.6150940  56.2446840  45.0903420  25.7053910
  66.1025250  53.6105510  24.4692570  65.4836690  54.0663010  23.8987010
  66.9577030  53.7656970  24.0682270  65.2963500  49.5944500  26.0759610
  65.2271780  48.6534440  25.9148740  66.0583360  49.6845910  26.6482180
  57.4870170  40.1999020  28.4016230  57.3073010  39.3024770  28.6818990
  57.0850250  40.7470890  29.0763180  66.3268670  42.4014880  26.3028540
  66.7033490  41.5286760  26.1902210  66.2288180  42.7373580  25.4118980
  60.4573680  40.7740510  21.7645980  60.5640430  41.6744240  22.0714740
  59.5466040  40.7258480  21.4740630  70.1092790  39.8965320  23.2356880
  70.9302410  39.4061890  23.2782360  70.1426870  40.4862980  23.9888720
  58.1056840  42.6959520  27.0098570  58.7866950  42.9597890  27.6285970
  57.7904890  41.8560390  27.3436580  62.2981410  43.7426880  26.0971160
  62.8059630  44.2407850  26.7376180  62.8294650  42.9662080  25.9210520
  60.5817510  38.3825440  30.3634580  60.5835950  38.8997830  29.5580480
  59.7521820  37.9055620  30.3404510  66.9688600  48.4944750  21.8624480
  66.3505870  48.9594200  21.2987200  67.4811850  49.1872230  22.2793990
  61.8320360  48.0220620  28.5408080  61.4989740  48.6489540  29.1829150
  62.0087040  48.5482500  27.7609750  70.3454270  41.8365700  26.0084420
  69.6409840  42.1250590  26.5887530  70.7066430  42.6465810  25.6483980
  60.2632840  40.0935400  28.3705030  60.6049650  40.9377450  28.0758900
  59.3248650  40.2419140  28.4870370  61.0439460  49.9901420  30.3557260
  61.6613460  50.6652500  30.0741710  60.1832580  50.3989400  30.2644760
  56.3371800  49.1801280  19.2364110  55.9599780  49.6688380  18.5049010
  56.5944870  49.8526560  19.8670640  63.9460730  37.5817670  24.6949620
  64.2535710  37.0264560  23.9785120  63.0161430  37.7162130  24.5122610
  69.4975790  53.2984960  26.9857080  69.5102950  52.8947250  26.1179340
  68.9451010  54.0732250  26.8818510  70.7921210  50.0201180  22.0747250
  70.6817540  49.0775510  22.1996670  70.7889460  50.3816820  22.9610010
  68.8961230  48.2014800  28.3139690  69.3130020  47.9874910  27.4793150
  69.6201050  48.4587590  28.8848310  66.3341490  45.6466500  21.4309740
  65.4070770  45.5803880  21.6598210  66.4866310  46.5846630  21.3164980
  66.3210570  41.9183500  18.4276900  65.3814240  42.0797460  18.5129360
  66.6393830  42.6369180  17.8812890  70.3638780  47.2086800  21.9344990
  69.7451200  46.8706350  21.2871290  70.3463230  46.5646560  22.6424180
  69.8065340  43.3871340  29.3510800  69.3936520  44.2125050  29.6050790
  69.0741290  42.8016380  29.1587160  61.9398130  46.1731240  24.2129470
  61.5355130  45.4608490  23.7175370  62.0261250  45.8284480  25.1017510
  62.4079830  49.8598800  26.3768680  62.1108120  49.2544270  25.6976460
  63.3579650  49.8976110  26.2658040  60.6526750  42.9474450  27.9928510
  61.2041340  43.0569790  27.2181760  61.1670260  43.3212050  28.7083740
  70.4965440  53.4330670  30.0391780  70.0196000  54.2402860  29.8464390
  69.8127230  52.7809000  30.1917990  61.4998260  49.5980490  33.0276480
  60.6026790  49.8220460  33.2749880  61.5251130  49.7215430  32.0787880
  68.5403480  46.4473610  18.9417740  68.9796760  45.6096040  18.7955560
  69.2531900  47.0803010  19.0281880  60.3269480  46.4693810  31.6033850
  60.1877250  47.3416610  31.9721250  59.4450840  46.1266620  31.4581790
  66.6498860  51.3869680  22.9098980  67.0894770  52.1294010  22.4954370
  66.5885750  51.6296250  23.8337940  62.1249830  52.4115510  33.8119000
  62.0965260  52.8158460  32.9447430  61.9614800  51.4825870  33.6490600
  58.6402760  45.0676220  21.7136120  58.5200360  45.7938310  21.1017390
  58.3303650  44.2979130  21.2364030  56.2788130  48.2391360  27.5204760
  56.3568550  48.3740130  26.5760480  56.8929810  47.5307250  27.7132880
  57.5235760  49.9391550  23.9310940  57.1163840  50.0806140  23.0764540
  58.4148770  49.6551710  23.7282150  67.3414640  54.0883460  30.8377990
  67.8559310  53.9991470  31.6400420  66.4983720  54.4343160  31.1305900
  69.3169040  54.3738800  20.2661990  69.1570180  54.0841740  21.1643820
  69.1515750  53.5978930  19.7307220  61.7957420  54.1537330  22.0433610
  61.6199900  53.2372870  21.8301410  60.9413160  54.5124620  22.2831410
  69.0195170  51.8826360  18.8259990  68.3260330  51.8803650  18.1662270
  69.7618030  51.4585680  18.3954160  68.5845100  53.5089070  22.9008480
  69.0402050  52.7278450  23.2147100  68.9237620  54.2195890  23.4449660
  56.3347650  49.2805530  30.0599220  56.4978690  48.8110890  29.2418590
  56.8000100  48.7729090  30.7248060  61.1066420  38.4111290  25.0959790
  60.6634570  39.1920830  24.7644310  61.6651410  38.7341180  25.8030730
  65.3936230  41.2779810  30.6995110  64.9315600  41.4862830  31.5115050
  64.9914340  40.4639160  30.3965780  70.3940740  42.4988760  31.8291770
  69.5434330  42.1994510  32.1500840  70.2342530  42.7430770  30.9175590
  67.4890450  43.9990510  33.9290560  67.8143860  43.1654260  33.5892790
  68.2770780  44.5219030  34.0768890  64.2225240  38.0321990  19.9765620
  63.5979420  38.0281860  20.7018930  64.1355360  37.1652950  19.5801590
  63.1442320  38.9558620  26.9549390  63.4414650  39.8621450  26.8741410
  63.6927880  38.4677400  26.3408960  60.8980640  43.5344860  22.8241040
  60.6721560  43.3182030  23.7287660  60.1173170  43.9673320  22.4787010
  68.1278400  43.5408230  21.4231690  67.5287290  44.2644030  21.2395310
  68.6758010  43.4785010  20.6408140  63.3379850  44.4330440  33.4901310
  63.2423450  43.4925170  33.3401710  64.1811830  44.6545510  33.0949380
  66.7343270  42.1771770  23.4534970  67.1272840  42.4943970  22.6403660
  67.0960120  41.2983650  23.5679490  58.4690390  40.8444110  31.6435090
  58.0753780  41.6919320  31.8507870  57.7808790  40.2070480  31.8343730
  65.0435440  40.9279080  34.7131830  64.3533760  40.7351280  35.3477920
  65.7867740  41.2113720  35.2456130  55.7707440  38.7672570  25.6765170
  55.4820490  39.3375430  26.3890150  56.5153200  38.2877020  26.0396400
  55.9577670  42.7092690  16.8867890  55.8752340  43.6523450  17.0282880
  55.6060730  42.5667600  16.0080240  67.3198410  44.7677520  27.5485750
  66.5879530  45.2764330  27.8975850  66.9222750  43.9507500  27.2474530
  63.7575800  41.4431720  25.9538240  63.7611860  41.0021670  25.1042780
  64.6526920  41.7649050  26.0610060  59.6078180  41.3258210  24.9132450
  59.2678230  41.8033440  25.6699500  58.8455500  40.8723330  24.5533550
  63.8195950  42.4443800  18.9445000  63.9408770  42.4030280  19.8930820
  63.4344460  43.3067950  18.7891730  67.7824320  40.2211200  26.9608690
  67.7997060  40.6719850  27.8050540  67.5339900  39.3216840  27.1742130
  62.8317450  44.7544940  18.3428300  62.2634350  44.3063190  17.7164210
  63.5406450  45.1137720  17.8093450  71.2095070  37.6343380  32.7995070
  71.5340840  36.9033040  33.3253050  71.2451580  37.3157020  31.8976060
  57.9086630  48.6556960  32.2195030  57.5241420  48.0150630  32.8177990
  58.2198820  49.3593080  32.7889760  64.0583770  45.5033500  27.7003650
  64.4253900  45.0292070  28.4464990  63.8688830  46.3775070  28.0411990
  56.9224260  40.2477190  23.8297120  56.6371180  39.8832860  24.6675740
  56.8603120  39.5157650  23.2160260  61.8483140  44.5442140  30.0187860
  61.5440210  45.4234120  30.2438220  62.8029600  44.6041930  30.0545300
  60.3764930  48.7503130  20.6154710  59.6027190  48.2100750  20.4553430
  61.1059560  48.2309740  20.2772470  71.1352910  47.7468490  26.4081100
  71.8552030  48.2423780  26.0177210  70.9334730  47.0686380  25.7634970
  66.5962850  39.1406450  20.5510490  65.7827460  38.6419620  20.4755800
  66.4024800  39.9804700  20.1346840  66.5171710  47.8177550  32.2950100
  66.4509020  46.8973220  32.0407690  65.8876850  47.9152990  33.0094740
  69.3111240  43.5126100  18.8472650  70.1990860  43.8243330  18.6723990
  69.2816330  42.6398350  18.4553230  60.4202330  48.4183510  24.2533520
  60.9381000  47.6151770  24.1990410  59.9686350  48.3562650  25.0950350
  65.3071830  49.6849790  19.5260820  65.6487530  50.4292020  19.0304140
  64.4784540  49.9980910  19.8885650  57.9046870  45.3844880  31.1659220
  57.5461810  46.0498730  31.7532560  57.6101430  44.5528430  31.5371840
  61.1059990  45.8429120  34.0498770  60.8060130  45.9886300  33.1526590
  61.8771230  45.2834410  33.9572160  66.4488440  50.6398120  32.0453900
  66.4632980  49.7079080  31.8272810  65.7413540  50.7257880  32.6843670
  68.1899240  49.0065630  24.8906330  68.5423060  48.4093760  24.2307700
  67.3061570  48.6809860  25.0614580  64.2762520  49.7663320  22.2976740
  64.9633650  50.3132530  22.6784330  63.4894940  50.3104050  22.3326350
  56.4154920  45.3836140  17.7893820  57.2849770  45.6660940  18.0729740
  55.9245240  46.1972010  17.6742630  63.5789730  46.7709350  21.9102100
  64.0352510  47.5814600  22.1362290  63.2277940  46.4532490  22.7420590
  65.8822340  52.2815690  29.1394400  66.5264560  52.4875070  29.8167820
  66.2451780  51.5204090  28.6865250  59.4801510  37.1147000  22.3824620
  59.3516140  37.1064900  23.3309540  58.6563530  37.4530090  22.0315630
  67.1554420  50.2848040  27.8571850  67.7976650  49.5841200  27.9704020
  67.6803770  51.0646480  27.6768740  71.0010140  50.5696660  17.5810990
  70.7747720  49.8527100  18.1735630  70.6106340  50.3209100  16.7432740
  68.9292040  51.0842940  31.0607910  69.2648280  51.6709630  31.7385830
  68.0092380  50.9535650  31.2905700  56.7826170  54.5963520  18.3555450
  57.1423810  55.1952860  17.7012720  56.6418510  55.1423410  19.1290480
  56.4795440  38.8738120  31.8431320  55.7653960  39.0735040  32.4483930
  56.8990480  38.0977690  32.2146120  70.5826390  48.4868600  19.2425150
  70.2948090  48.9481290  20.0303030  71.3778560  48.0266370  19.5109370
  56.7668030  52.8618380  32.8297850  56.8759150  51.9213120  32.6893240
  56.1148590  53.1273130  32.1811580  64.7580620  51.1334270  34.2295970
  64.4377490  50.4143510  34.7741660  64.0838980  51.8089340  34.3032030
  62.7994790  51.9794720  19.1729120  62.7904890  52.7124410  18.5573630
  61.8793150  51.7326300  19.2656080  58.4001430  47.2009610  19.9175880
  57.7929380  47.9408510  19.9271180  58.8750780  47.2908970  19.0914080
  67.9734220  41.3660430  29.5932770  68.3415040  40.5455640  29.9212340
  67.1132420  41.4262320  30.0088420  71.3396250  40.3217370  20.4020330
  70.7109410  40.4263040  19.6878560  70.8448170  40.5414150  21.1914210
  65.7854390  52.0422960  17.8354310  65.8866370  51.8386950  16.9056290
  64.8856130  51.7881240  18.0402090  63.3080280  42.6003320  21.8178210
  62.5996430  43.0689660  22.2591820  63.5924760  41.9425330  22.4523400
  64.9336210  44.0200020  29.8170740  65.4321460  44.4945840  30.4822590
  65.0759160  43.0963540  30.0240770  67.3395710  39.3253980  23.2574000
  67.2163490  39.3440110  22.3083510  68.2880270  39.3732920  23.3772400
  64.4272500  54.5609280  22.5301980  64.6814000  54.5230670  21.6081350
  63.4784980  54.4342610  22.5230230  61.5115300  40.9088400  19.1928920
  62.3605830  41.3458550  19.1269110  61.1446570  41.2208660  20.0200980
  70.4325080  45.4801160  24.1060490  69.4915220  45.4951390  24.2808180
  70.7469150  44.6937120  24.5520790  60.4106720  47.1620760  17.6664450
  61.1769990  47.0502120  18.2289880  60.4881410  46.4658730  17.0141220
  59.1053480  44.5945830  18.3497340  59.1857070  43.6473340  18.4614740
  59.9973230  44.9252710  18.4558000  59.9068190  54.7441220  25.4531880
  60.6430670  54.1956680  25.7240450  60.2909110  55.6097230  25.3137870
  56.7913670  50.8114790  21.3273390  55.8653450  51.0535930  21.3178800
  57.2570100  51.6389050  21.2058140  58.9126470  53.9287290  34.6417460
  59.7139200  54.2499340  35.0552860  58.3978290  53.5682870  35.3637370
  63.0170500  53.9171530  17.2757450  63.8099110  54.2060360  16.8239240
  62.4974850  53.4863700  16.5969930  67.7491100  50.0367160  34.5892870
  67.1429260  50.0598760  33.8488620  67.4445210  49.3050200  35.1260120
  69.1791470  53.7647450  33.2002280  70.1313220  53.6805470  33.1502520
  69.0319690  54.4289160  33.8736070  56.6324280  46.4160750  33.5853510
  57.1363300  45.8368030  34.1569740  55.8931700  46.7000980  34.1229880
  63.5347900  49.1374940  17.1399800  63.4298540  48.5227290  17.8661180
  63.3672120  48.6140830  16.3562810  63.6862220  47.8231740  33.1189030
  62.9207890  48.3916740  33.0343700  63.8678180  47.5307950  32.2257260
  66.7750630  48.1994970  17.7441790  66.2260730  48.6464270  18.3884530
  67.3969890  47.6944220  18.2679460  70.8285570  49.5537070  33.6764050
  71.5695040  49.8912830  33.1731510  70.0658250  49.7229130  33.1233820
  58.6647360  44.5590340  34.4803580  58.7052700  44.2604210  35.3888810
  59.5192860  44.9597950  34.3211100  62.4425750  47.1585890  19.6407090
  62.8642170  46.9925760  20.4838480  62.5676590  46.3486120  19.1462230
  60.6053170  43.1382440  32.4478070  60.0749630  42.6473390  31.8201410
  61.2741240  43.5666640  31.9136000  64.9553390  46.1823500  16.8884190
  65.4759050  45.4672520  16.5225340  65.6021790  46.8209370  17.1884700
  69.5031230  47.6051900  32.2119260  69.9172250  47.7596980  33.0609680
  68.5682230  47.7307120  32.3745040  69.9753400  44.9448060  34.2158410
  70.5574170  44.1900380  34.1278890  70.1515170  45.4755500  33.4389890
  61.0925470  40.1044810  32.5275360  60.9982340  39.4865560  31.8026230
  60.5122860  40.8311100  32.3005270  63.8586910  38.6618050  29.5602750
  63.4104210  38.6842310  28.7148300  63.2252110  38.2637070  30.1573050
  64.2646460  47.5572380  30.1815190  64.6834570  48.4005110  30.0091430
  63.3455090  47.6944420  29.9521970  66.6010360  45.2888560  31.5653030
  66.7206570  44.6929700  32.3047870  67.4604360  45.3258250  31.1454330
  68.9398260  45.8425750  30.1415540  68.4133480  46.3668370  29.5380680
  69.2829600  46.4753140  30.7725270  61.3384650  43.2319120  16.5865250
  61.1373710  42.3686480  16.9478590  61.1676700  43.1452480  15.6486850
  62.1153880  53.8625390  31.2972920  61.5774970  54.5871450  30.9781620
  62.3687840  53.3855730  30.5070260  63.3679130  41.8309910  32.8228850
  63.9578820  41.5225760  33.5106670  62.5499370  41.3589660  32.9788750
  68.1872560  41.4475720  33.0561870  67.4988080  40.7857260  32.9911860
  68.9078580  41.0013990  33.5010330  68.8172960  38.0427350  19.1152130
  69.0975250  37.1995250  19.4711550  68.0438690  38.2750460  19.6290880
  60.1367450  40.3319740  16.5743130  60.4393350  40.3387170  15.6662280
  60.8762040  39.9817600  17.0710790  64.9716090  55.0976600  31.5559570
  64.8974790  56.0011740  31.8631940  64.0694930  54.7788500  31.5281640
  63.3552380  39.2754360  17.5599330  63.0074380  38.5978350  16.9801780
  63.5565150  38.8143870  18.3742720  65.5201420  54.2635110  19.1785930
  66.4152210  54.6020080  19.2004690  65.5519050  53.5414520  18.5510210
  59.1597580  49.6362160  17.4072930  59.5972450  50.1791830  18.0630510
  59.6445310  48.8109110  17.4169270  56.3743380  52.4251190  24.8593190
  56.7046390  51.5572250  24.6271830  56.8034380  52.6309710  25.6898150
  60.9705300  50.7560200  22.5195160  60.6700840  50.6325170  23.4199070
  60.8642790  49.8968790  22.1110890  56.8633590  53.2921780  27.5974820
  56.4264580  53.4722580  28.4298970  57.4311270  54.0496400  27.4556540
  56.6958020  45.8042010  23.9563700  56.0406860  45.5353650  23.3123400
  57.5335970  45.6946490  23.5065680  71.1847410  49.5190760  29.9828290
  70.3707250  49.9487920  30.2454080  71.5921610  50.1309170  29.3697340
  69.6448460  40.5983300  18.1782190  70.0633340  40.4114280  17.3378850
  69.3384520  39.7462350  18.4885120  57.7333950  46.1894580  28.4967040
  58.1006990  46.1021980  29.3763060  57.1644770  45.4261130  28.3973900
  57.2849950  43.1003670  32.4025460  56.3906000  43.0670430  32.7419170
  57.8247500  43.2990460  33.1676710  70.9725880  39.8835390  34.2877210
  71.8496060  39.8918790  34.6711210  70.9846720  39.1466230  33.6769560
  55.9096100  43.0140940  19.8989030  55.0060180  43.2771140  19.7240690
  56.3936720  43.2852110  19.1188990  58.4523310  42.0706480  17.8083410
  59.1615010  41.6489700  17.3230690  57.7363250  42.1381710  17.1766760
  58.0997470  38.1245810  16.8486060  58.8225600  38.6654750  17.1667280
  58.3721990  37.8509230  15.9727600  57.7889660  37.3752000  26.7508680
  58.4365850  36.8249380  26.3103840  58.2091500  37.6295150  27.5724490
  71.2423460  54.2709360  23.5096560  71.8382530  53.9493930  22.8330980
  71.5001610  53.7981180  24.3009830  57.5421660  37.5307670  29.4934000
  57.1936480  37.9871490  30.2592180  57.2109360  36.6364800  29.5756430
  59.1486030  50.7027270  33.6587190  59.1055660  50.3320180  34.5401650
  59.2797040  51.6404840  33.7989010  62.8492060  52.2586860  29.2596910
  62.6083420  52.5261420  28.3727430  63.7894700  52.4292590  29.3147770
  65.0546480  38.7219550  33.0153420  64.9935370  39.3141380  33.7648830
  65.9946860  38.6145510  32.8703680  67.6921040  38.3789610  32.6545710
  68.3061450  38.6968900  31.9926790  68.2370600  37.8938200  33.2741570
  58.2142300  37.0583870  32.7684770  58.7625290  36.8771920  32.0050880
  58.2797610  36.2677980  33.3041080  58.9874060  53.6489520  30.7784970
  58.3934380  53.5174220  31.5175010  58.9797900  52.8127660  30.3127070
  68.4329080  36.9421750  28.9815000  67.5588920  37.2756860  28.7787930
  68.3239830  36.4694930  29.8066870  69.3401060  39.1492620  30.3656720
  69.0114420  38.3344380  29.9858450  70.2883360  39.1062430  30.2422410
  71.7935670  54.9204660  27.3394290  71.3338640  55.6720470  26.9652310
  71.1648130  54.2011130  27.2809090  58.6186290  51.0147900  29.7293010
  57.8920350  50.3953190  29.6618960  58.6795440  51.4088510  28.8591090
  62.2231390  53.2292900  26.5142420  62.7396410  52.6180260  25.9890680
  62.8728770  53.7321680  27.0053430  64.9626890  54.1201390  27.3411400
  65.2504700  53.8655690  26.4644410  65.4750110  53.5678750  27.9316970
  66.1803900  37.8591590  27.9207910  65.3975690  38.3337090  28.2004670
  65.8866830  36.9546420  27.8121090  70.7324970  38.5614690  25.9657000
  71.1733060  38.5059790  25.1178600  70.4632560  39.4772700  26.0367180
  56.9016290  54.3322290  22.9389770  56.7338330  53.6992970  23.6371660
  56.0350800  54.5381690  22.5883960  57.5244310  38.1639070  20.4421630
  58.2823670  38.2767950  19.8685660  57.0621480  39.0008270  20.3965060
  64.0658120  40.2778340  23.4323940  63.2532630  39.9035230  23.0919820
  64.5699760  39.5223420  23.7345130  68.5683100  36.9420790  24.6707010
  69.1712470  37.5141000  25.1455530  67.8276090  37.5060230  24.4480910
  71.7117700  37.3442350  19.9447290  71.9068330  38.2425800  20.2114720
  70.9247570  37.1129430  20.4380240  58.5078990  53.0255520  20.3839910
  57.9826610  53.4063550  19.6801870  58.4323570  53.6506290  21.1049620
  59.8969460  38.6903120  18.9823600  60.4262220  37.9032920  18.8531550
  60.5297780  39.3694310  19.2159130  62.0907300  38.4278260  22.0368990
  61.4610040  37.7265570  22.2039120  61.5512440  39.1882390  21.8202150
  65.0299250  55.0417490  34.7079600  65.9566560  54.8061760  34.7515560
  65.0149680  55.8689490  34.2265630  62.2162860  37.7062240  34.4721480
  61.9347130  38.2095840  33.7082300  62.5982560  36.9083990  34.1063610
  61.1071960  54.9737900  19.2589160  61.8390780  54.6897180  18.7113050
  61.3665630  54.7351180  20.1488540  60.2686750  51.0902630  19.2635490
  59.6395630  51.5587730  19.8121320  60.3834580  50.2451850  19.6981680
  68.8178320  37.1215820  35.0501950  68.7043770  37.4410430  35.9453470
  69.6348060  37.5228330  34.7539230  67.7236470  45.1408290   5.4136690
  67.6430520  44.2262900   5.1428400  67.3100890  45.6375360   4.7076400
  65.8554510  46.9187310   7.2945960  65.0796610  46.4387750   7.5844530
  66.5067440  46.2392960   7.1202120  59.8720340  47.2307120   8.1721720
  59.0405220  46.9755830   8.5718230  60.4801320  47.3017890   8.9079640
  69.8761940  51.3247500   6.0745090  69.4143470  50.5534740   6.4032260
  70.6887490  51.3513570   6.5797540  59.8521600  51.2647210   8.3679740
  60.1549640  50.3744950   8.1889960  60.5965190  51.8217430   8.1401990
  56.2445300  44.7914660   7.8403810  56.8161410  44.0236860   7.8407450
  56.2446840  45.0903420   6.9310420  66.1025250  53.6105510   5.6949080
  65.4836690  54.0663010   5.1243520  66.9577030  53.7656970   5.2938780
  65.2963500  49.5944500   7.3016120  65.2271780  48.6534440   7.1405250
  66.0583360  49.6845910   7.8738690  57.4870170  40.1999020   9.6272740
  57.3073010  39.3024770   9.9075500  57.0850250  40.7470890  10.3019690
  66.3268670  42.4014880   7.5285050  66.7033490  41.5286760   7.4158720
  66.2288180  42.7373580   6.6375490  60.4573680  40.7740510   2.9902490
  60.5640430  41.6744240   3.2971250  59.5466040  40.7258480   2.6997140
  70.1092790  39.8965320   4.4613390  70.9302410  39.4061890   4.5038870
  70.1426870  40.4862980   5.2145230  58.1056840  42.6959520   8.2355080
  58.7866950  42.9597890   8.8542480  57.7904890  41.8560390   8.5693090
  62.2981410  43.7426880   7.3227670  62.8059630  44.2407850   7.9632690
  62.8294650  42.9662080   7.1467030  60.5817510  38.3825440  11.5891090
  60.5835950  38.8997830  10.7836990  59.7521820  37.9055620  11.5661020
  66.9688600  48.4944750   3.0880990  66.3505870  48.9594200   2.5243710
  67.4811850  49.1872230   3.5050500  61.8320360  48.0220620   9.7664590
  61.4989740  48.6489540  10.4085660  62.0087040  48.5482500   8.9866260
  70.3454270  41.8365700   7.2340930  69.6409840  42.1250590   7.8144040
  70.7066430  42.6465810   6.8740490  60.2632840  40.0935400   9.5961540
  60.6049650  40.9377450   9.3015410  59.3248650  40.2419140   9.7126880
  61.0439460  49.9901420  11.5813770  61.6613460  50.6652500  11.2998220
  60.1832580  50.3989400  11.4901270  63.9460730  37.5817670   5.9206130
  64.2535710  37.0264560   5.2041630  63.0161430  37.7162130   5.7379120
  69.4975790  53.2984960   8.2113590  69.5102950  52.8947250   7.3435850
  68.9451010  54.0732250   8.1075020  70.7921210  50.0201180   3.3003760
  70.6817540  49.0775510   3.4253180  70.7889460  50.3816820   4.1866520
  68.8961230  48.2014800   9.5396200  69.3130020  47.9874910   8.7049660
  69.6201050  48.4587590  10.1104820  66.3341490  45.6466500   2.6566250
  65.4070770  45.5803880   2.8854720  66.4866310  46.5846630   2.5421490
  70.3638780  47.2086800   3.1601500  69.7451200  46.8706350   2.5127800
  70.3463230  46.5646560   3.8680690  69.8065340  43.3871340  10.5767310
  69.3936520  44.2125050  10.8307300  69.0741290  42.8016380  10.3843670
  61.9398130  46.1731240   5.4385980  61.5355130  45.4608490   4.9431880
  62.0261250  45.8284480   6.3274020  62.4079830  49.8598800   7.6025190
  62.1108120  49.2544270   6.9232970  63.3579650  49.8976110   7.4914550
  60.6526750  42.9474450   9.2185020  61.2041340  43.0569790   8.4438270
  61.1670260  43.3212050   9.9340250  70.4965440  53.4330670  11.2648290
  70.0196000  54.2402860  11.0720900  69.8127230  52.7809000  11.4174500
  61.4998260  49.5980490  14.2532990  60.6026790  49.8220460  14.5006390
  61.5251130  49.7215430  13.3044390  60.3269480  46.4693810  12.8290360
  60.1877250  47.3416610  13.1977760  59.4450840  46.1266620  12.6838300
  66.6498860  51.3869680   4.1355490  67.0894770  52.1294010   3.7210880
  66.5885750  51.6296250   5.0594450  62.1249830  52.4115510  15.0375510
  62.0965260  52.8158460  14.1703940  61.9614800  51.4825870  14.8747110
  58.6402760  45.0676220   2.9392630  58.5200360  45.7938310   2.3273900
  58.3303650  44.2979130   2.4620540  56.2788130  48.2391360   8.7461270
  56.3568550  48.3740130   7.8016990  56.8929810  47.5307250   8.9389390
  57.5235760  49.9391550   5.1567450  57.1163840  50.0806140   4.3021050
  58.4148770  49.6551710   4.9538660  67.3414640  54.0883460  12.0634500
  67.8559310  53.9991470  12.8656930  66.4983720  54.4343160  12.3562410
  61.7957420  54.1537330   3.2690120  61.6199900  53.2372870   3.0557920
  60.9413160  54.5124620   3.5087920  68.5845100  53.5089070   4.1264990
  69.0402050  52.7278450   4.4403610  68.9237620  54.2195890   4.6706170
  56.3347650  49.2805530  11.2855730  56.4978690  48.8110890  10.4675100
  56.8000100  48.7729090  11.9504570  61.1066420  38.4111290   6.3216300
  60.6634570  39.1920830   5.9900820  61.6651410  38.7341180   7.0287240
  65.3936230  41.2779810  11.9251620  64.9315600  41.4862830  12.7371560
  64.9914340  40.4639160  11.6222290  70.3940740  42.4988760  13.0548280
  69.5434330  42.1994510  13.3757350  70.2342530  42.7430770  12.1432100
  67.4890450  43.9990510  15.1547070  67.8143860  43.1654260  14.8149300
  68.2770780  44.5219030  15.3025400  63.1442320  38.9558620   8.1805900
  63.4414650  39.8621450   8.0997920  63.6927880  38.4677400   7.5665470
  60.8980640  43.5344860   4.0497550  60.6721560  43.3182030   4.9544170
  60.1173170  43.9673320   3.7043520  68.1278400  43.5408230   2.6488200
  67.5287290  44.2644030   2.4651820  68.6758010  43.4785010   1.8664650
  63.3379850  44.4330440  14.7157820  63.2423450  43.4925170  14.5658220
  64.1811830  44.6545510  14.3205890  66.7343270  42.1771770   4.6791480
  67.1272840  42.4943970   3.8660170  67.0960120  41.2983650   4.7936000
  58.4690390  40.8444110  12.8691600  58.0753780  41.6919320  13.0764380
  57.7808790  40.2070480  13.0600240  65.0435440  40.9279080  15.9388340
  64.3533760  40.7351280  16.5734430  65.7867740  41.2113720  16.4712640
  55.7707440  38.7672570   6.9021680  55.4820490  39.3375430   7.6146660
  56.5153200  38.2877020   7.2652910  67.3198410  44.7677520   8.7742260
  66.5879530  45.2764330   9.1232360  66.9222750  43.9507500   8.4731040
  63.7575800  41.4431720   7.1794750  63.7611860  41.0021670   6.3299290
  64.6526920  41.7649050   7.2866570  59.6078180  41.3258210   6.1388960
  59.2678230  41.8033440   6.8956010  58.8455500  40.8723330   5.7790060
  67.7824320  40.2211200   8.1865200  67.7997060  40.6719850   9.0307050
  67.5339900  39.3216840   8.3998640  71.2095070  37.6343380  14.0251580
  71.5340840  36.9033040  14.5509560  71.2451580  37.3157020  13.1232570
  57.9086630  48.6556960  13.4451540  57.5241420  48.0150630  14.0434500
  58.2198820  49.3593080  14.0146270  64.0583770  45.5033500   8.9260160
  64.4253900  45.0292070   9.6721500  63.8688830  46.3775070   9.2668500
  56.9224260  40.2477190   5.0553630  56.6371180  39.8832860   5.8932250
  56.8603120  39.5157650   4.4416770  61.8483140  44.5442140  11.2444370
  61.5440210  45.4234120  11.4694730  62.8029600  44.6041930  11.2801810
  60.3764930  48.7503130   1.8411220  59.6027190  48.2100750   1.6809940
  61.1059560  48.2309740   1.5028980  71.1352910  47.7468490   7.6337610
  71.8552030  48.2423780   7.2433720  70.9334730  47.0686380   6.9891480
  66.5962850  39.1406450   1.7767000  65.7827460  38.6419620   1.7012310
  66.4024800  39.9804700   1.3603350  66.5171710  47.8177550  13.5206610
  66.4509020  46.8973220  13.2664200  65.8876850  47.9152990  14.2351250
  60.4202330  48.4183510   5.4790030  60.9381000  47.6151770   5.4246920
  59.9686350  48.3562650   6.3206860  57.9046870  45.3844880  12.3915730
  57.5461810  46.0498730  12.9789070  57.6101430  44.5528430  12.7628350
  61.1059990  45.8429120  15.2755280  60.8060130  45.9886300  14.3783100
  61.8771230  45.2834410  15.1828670  66.4488440  50.6398120  13.2710410
  66.4632980  49.7079080  13.0529320  65.7413540  50.7257880  13.9100180
  68.1899240  49.0065630   6.1162840  68.5423060  48.4093760   5.4564210
  67.3061570  48.6809860   6.2871090  64.2762520  49.7663320   3.5233250
  64.9633650  50.3132530   3.9040840  63.4894940  50.3104050   3.5582860
  63.5789730  46.7709350   3.1358610  64.0352510  47.5814600   3.3618800
  63.2277940  46.4532490   3.9677100  65.8822340  52.2815690  10.3650910
  66.5264560  52.4875070  11.0424330  66.2451780  51.5204090   9.9121760
  59.4801510  37.1147000   3.6081130  59.3516140  37.1064900   4.5566050
  58.6563530  37.4530090   3.2572140  67.1554420  50.2848040   9.0828360
  67.7976650  49.5841200   9.1960530  67.6803770  51.0646480   8.9025250
  68.9292040  51.0842940  12.2864420  69.2648280  51.6709630  12.9642340
  68.0092380  50.9535650  12.5162210  56.4795440  38.8738120  13.0687830
  55.7653960  39.0735040  13.6740440  56.8990480  38.0977690  13.4402630
  56.7668030  52.8618380  14.0554360  56.8759150  51.9213120  13.9149750
  56.1148590  53.1273130  13.4068090  64.7580620  51.1334270  15.4552480
  64.4377490  50.4143510  15.9998170  64.0838980  51.8089340  15.5288540
  67.9734220  41.3660430  10.8189280  68.3415040  40.5455640  11.1468850
  67.1132420  41.4262320  11.2344930  63.3080280  42.6003320   3.0434720
  62.5996430  43.0689660   3.4848330  63.5924760  41.9425330   3.6779910
  64.9336210  44.0200020  11.0427250  65.4321460  44.4945840  11.7079100
  65.0759160  43.0963540  11.2497280  67.3395710  39.3253980   4.4830510
  67.2163490  39.3440110   3.5340020  68.2880270  39.3732920   4.6028910
  64.4272500  54.5609280   3.7558490  64.6814000  54.5230670   2.8337860
  63.4784980  54.4342610   3.7486740  70.4325080  45.4801160   5.3317000
  69.4915220  45.4951390   5.5064690  70.7469150  44.6937120   5.7777300
  59.9068190  54.7441220   6.6788390  60.6430670  54.1956680   6.9496960
  60.2909110  55.6097230   6.5394380  56.7913670  50.8114790   2.5529900
  55.8653450  51.0535930   2.5435310  57.2570100  51.6389050   2.4314650
  58.9126470  53.9287290  15.8673970  59.7139200  54.2499340  16.2809370
  58.3978290  53.5682870  16.5893880  67.7491100  50.0367160  15.8149380
  67.1429260  50.0598760  15.0745130  67.4445210  49.3050200  16.3516630
  69.1791470  53.7647450  14.4258790  70.1313220  53.6805470  14.3759030
  69.0319690  54.4289160  15.0992580  56.6324280  46.4160750  14.8110020
  57.1363300  45.8368030  15.3826250  55.8931700  46.7000980  15.3486390
  63.6862220  47.8231740  14.3445540  62.9207890  48.3916740  14.2600210
  63.8678180  47.5307950  13.4513770  70.8285570  49.5537070  14.9020560
  71.5695040  49.8912830  14.3988020  70.0658250  49.7229130  14.3490330
  58.6647360  44.5590340  15.7060090  58.7052700  44.2604210  16.6145320
  59.5192860  44.9597950  15.5467610  60.6053170  43.1382440  13.6734580
  60.0749630  42.6473390  13.0457920  61.2741240  43.5666640  13.1392510
  69.5031230  47.6051900  13.4375770  69.9172250  47.7596980  14.2866190
  68.5682230  47.7307120  13.6001550  69.9753400  44.9448060  15.4414920
  70.5574170  44.1900380  15.3535400  70.1515170  45.4755500  14.6646400
  61.0925470  40.1044810  13.7531870  60.9982340  39.4865560  13.0282740
  60.5122860  40.8311100  13.5261780  63.8586910  38.6618050  10.7859260
  63.4104210  38.6842310   9.9404810  63.2252110  38.2637070  11.3829560
  64.2646460  47.5572380  11.4071700  64.6834570  48.4005110  11.2347940
  63.3455090  47.6944420  11.1778480  66.6010360  45.2888560  12.7909540
  66.7206570  44.6929700  13.5304380  67.4604360  45.3258250  12.3710840
  68.9398260  45.8425750  11.3672050  68.4133480  46.3668370  10.7637190
  69.2829600  46.4753140  11.9981780  62.1153880  53.8625390  12.5229430
  61.5774970  54.5871450  12.2038130  62.3687840  53.3855730  11.7326770
  63.3679130  41.8309910  14.0485360  63.9578820  41.5225760  14.7363180
  62.5499370  41.3589660  14.2045260  68.1872560  41.4475720  14.2818380
  67.4988080  40.7857260  14.2168370  68.9078580  41.0013990  14.7266840
  64.9716090  55.0976600  12.7816080  64.8974790  56.0011740  13.0888450
  64.0694930  54.7788500  12.7538150  56.3743380  52.4251190   6.0849700
  56.7046390  51.5572250   5.8528340  56.8034380  52.6309710   6.9154660
  60.9705300  50.7560200   3.7451670  60.6700840  50.6325170   4.6455580
  60.8642790  49.8968790   3.3367400  56.8633590  53.2921780   8.8231330
  56.4264580  53.4722580   9.6555480  57.4311270  54.0496400   8.6813050
  56.6958020  45.8042010   5.1820210  56.0406860  45.5353650   4.5379910
  57.5335970  45.6946490   4.7322190  71.1847410  49.5190760  11.2084800
  70.3707250  49.9487920  11.4710590  71.5921610  50.1309170  10.5953850
  57.7333950  46.1894580   9.7223550  58.1006990  46.1021980  10.6019570
  57.1644770  45.4261130   9.6230410  57.2849950  43.1003670  13.6281970
  56.3906000  43.0670430  13.9675680  57.8247500  43.2990460  14.3933220
  70.9725880  39.8835390  15.5133720  71.8496060  39.8918790  15.8967720
  70.9846720  39.1466230  14.9026070  57.7889660  37.3752000   7.9765190
  58.4365850  36.8249380   7.5360350  58.2091500  37.6295150   8.7981000
  71.2423460  54.2709360   4.7353070  71.8382530  53.9493930   4.0587490
  71.5001610  53.7981180   5.5266340  57.5421660  37.5307670  10.7190510
  57.1936480  37.9871490  11.4848690  57.2109360  36.6364800  10.8012940
  59.1486030  50.7027270  14.8843700  59.1055660  50.3320180  15.7658160
  59.2797040  51.6404840  15.0245520  62.8492060  52.2586860  10.4853420
  62.6083420  52.5261420   9.5983940  63.7894700  52.4292590  10.5404280
  65.0546480  38.7219550  14.2409930  64.9935370  39.3141380  14.9905340
  65.9946860  38.6145510  14.0960190  67.6921040  38.3789610  13.8802220
  68.3061450  38.6968900  13.2183300  68.2370600  37.8938200  14.4998080
  58.2142300  37.0583870  13.9941280  58.7625290  36.8771920  13.2307390
  58.2797610  36.2677980  14.5297590  58.9874060  53.6489520  12.0041480
  58.3934380  53.5174220  12.7431520  58.9797900  52.8127660  11.5383580
  68.4329080  36.9421750  10.2071510  67.5588920  37.2756860  10.0044440
  68.3239830  36.4694930  11.0323380  69.3401060  39.1492620  11.5913230
  69.0114420  38.3344380  11.2114960  70.2883360  39.1062430  11.4678920
  71.7935670  54.9204660   8.5650800  71.3338640  55.6720470   8.1908820
  71.1648130  54.2011130   8.5065600  58.6186290  51.0147900  10.9549520
  57.8920350  50.3953190  10.8875470  58.6795440  51.4088510  10.0847600
  62.2231390  53.2292900   7.7398930  62.7396410  52.6180260   7.2147190
  62.8728770  53.7321680   8.2309940  64.9626890  54.1201390   8.5667910
  65.2504700  53.8655690   7.6900920  65.4750110  53.5678750   9.1573480
  66.1803900  37.8591590   9.1464420  65.3975690  38.3337090   9.4261180
  65.8866830  36.9546420   9.0377600  70.7324970  38.5614690   7.1913510
  71.1733060  38.5059790   6.3435110  70.4632560  39.4772700   7.2623690
  56.9016290  54.3322290   4.1646280  56.7338330  53.6992970   4.8628170
  56.0350800  54.5381690   3.8140470  64.0658120  40.2778340   4.6580450
  63.2532630  39.9035230   4.3176330  64.5699760  39.5223420   4.9601640
  68.5683100  36.9420790   5.8963520  69.1712470  37.5141000   6.3712040
  67.8276090  37.5060230   5.6737420  62.0907300  38.4278260   3.2625500
  61.4610040  37.7265570   3.4295630  61.5512440  39.1882390   3.0458660
  65.0299250  55.0417490  15.9336110  65.9566560  54.8061760  15.9772070
  65.0149680  55.8689490  15.4522140  62.2162860  37.7062240  15.6977990
  61.9347130  38.2095840  14.9338810  62.5982560  36.9083990  15.3320120
  68.8178320  37.1215820  16.2758460  68.7043770  37.4410430  17.1709980
  69.6348060  37.5228330  15.9795740  67.7236470  26.3664800  61.7367160
  67.6430520  25.4519410  61.4658870  67.3100890  26.8631870  61.0306870
  65.8554510  28.1443820  63.6176430  65.0796610  27.6644260  63.9075000
  66.5067440  27.4649470  63.4432590  59.8720340  28.4563630  64.4952190
  59.0405220  28.2012340  64.8948700  60.4801320  28.5274400  65.2310110
  69.8761940  32.5504010  62.3975560  69.4143470  31.7791250  62.7262730
  70.6887490  32.5770080  62.9028010  59.8521600  32.4903720  64.6910210
  60.1549640  31.6001460  64.5120430  60.5965190  33.0473940  64.4632460
  58.2812290  23.4165520  58.2794580  57.3928990  23.7581490  58.1774460
  58.5653480  23.2165840  57.3875410  56.2445300  26.0171170  64.1634280
  56.8161410  25.2493370  64.1637920  56.2446840  26.3159930  63.2540890
  66.1025250  34.8362020  62.0179550  65.4836690  35.2919520  61.4473990
  66.9577030  34.9913480  61.6169250  65.2963500  30.8201010  63.6246590
  65.2271780  29.8790950  63.4635720  66.0583360  30.9102420  64.1969160
  57.4870170  21.4255530  65.9503210  57.3073010  20.5281280  66.2305970
  57.0850250  21.9727400  66.6250160  66.3268670  23.6271390  63.8515520
  66.7033490  22.7543270  63.7389190  66.2288180  23.9630090  62.9605960
  60.4573680  21.9997020  59.3132960  60.5640430  22.9000750  59.6201720
  59.5466040  21.9514990  59.0227610  70.1092790  21.1221830  60.7843860
  70.9302410  20.6318400  60.8269340  70.1426870  21.7119490  61.5375700
  58.1056840  23.9216030  64.5585550  58.7866950  24.1854400  65.1772950
  57.7904890  23.0816900  64.8923560  62.2981410  24.9683390  63.6458140
  62.8059630  25.4664360  64.2863160  62.8294650  24.1918590  63.4697500
  60.5817510  19.6081950  67.9121560  60.5835950  20.1254340  67.1067460
  59.7521820  19.1312130  67.8891490  66.9688600  29.7201260  59.4111460
  66.3505870  30.1850710  58.8474180  67.4811850  30.4128740  59.8280970
  61.8320360  29.2477130  66.0895060  61.4989740  29.8746050  66.7316130
  62.0087040  29.7739010  65.3096730  70.3454270  23.0622210  63.5571400
  69.6409840  23.3507100  64.1374510  70.7066430  23.8722320  63.1970960
  60.2632840  21.3191910  65.9192010  60.6049650  22.1633960  65.6245880
  59.3248650  21.4675650  66.0357350  61.0439460  31.2157930  67.9044240
  61.6613460  31.8909010  67.6228690  60.1832580  31.6245910  67.8131740
  56.3371800  30.4057790  56.7851090  55.9599780  30.8944890  56.0535990
  56.5944870  31.0783070  57.4157620  63.9460730  18.8074180  62.2436600
  64.2535710  18.2521070  61.5272100  63.0161430  18.9418640  62.0609590
  69.4975790  34.5241470  64.5344060  69.5102950  34.1203760  63.6666320
  68.9451010  35.2988760  64.4305490  70.7921210  31.2457690  59.6234230
  70.6817540  30.3032020  59.7483650  70.7889460  31.6073330  60.5096990
  68.8961230  29.4271310  65.8626670  69.3130020  29.2131420  65.0280130
  69.6201050  29.6844100  66.4335290  66.3341490  26.8723010  58.9796720
  65.4070770  26.8060390  59.2085190  66.4866310  27.8103140  58.8651960
  66.3210570  23.1440010  55.9763880  65.3814240  23.3053970  56.0616340
  66.6393830  23.8625690  55.4299870  70.3638780  28.4343310  59.4831970
  69.7451200  28.0962860  58.8358270  70.3463230  27.7903070  60.1911160
  69.8065340  24.6127850  66.8997780  69.3936520  25.4381560  67.1537770
  69.0741290  24.0272890  66.7074140  61.9398130  27.3987750  61.7616450
  61.5355130  26.6865000  61.2662350  62.0261250  27.0540990  62.6504490
  62.4079830  31.0855310  63.9255660  62.1108120  30.4800780  63.2463440
  63.3579650  31.1232620  63.8145020  60.6526750  24.1730960  65.5415490
  61.2041340  24.2826300  64.7668740  61.1670260  24.5468560  66.2570720
  70.4965440  34.6587180  67.5878760  70.0196000  35.4659370  67.3951370
  69.8127230  34.0065510  67.7404970  68.5403480  27.6730120  56.4904720
  68.9796760  26.8352550  56.3442540  69.2531900  28.3059520  56.5768860
  66.6498860  32.6126190  60.4585960  67.0894770  33.3550520  60.0441350
  66.5885750  32.8552760  61.3824920  58.6402760  26.2932730  59.2623100
  58.5200360  27.0194820  58.6504370  58.3303650  25.5235640  58.7851010
  56.2788130  29.4647870  65.0691740  56.3568550  29.5996640  64.1247460
  56.8929810  28.7563760  65.2619860  57.5235760  31.1648060  61.4797920
  57.1163840  31.3062650  60.6251520  58.4148770  30.8808220  61.2769130
  69.3169040  35.5995310  57.8148970  69.1570180  35.3098250  58.7130800
  69.1515750  34.8235440  57.2794200  61.7957420  35.3793840  59.5920590
  61.6199900  34.4629380  59.3788390  60.9413160  35.7381130  59.8318390
  69.0195170  33.1082870  56.3746970  68.3260330  33.1060160  55.7149250
  69.7618030  32.6842190  55.9441140  68.5845100  34.7345580  60.4495460
  69.0402050  33.9534960  60.7634080  68.9237620  35.4452400  60.9936640
  56.3347650  30.5062040  67.6086200  56.4978690  30.0367400  66.7905570
  56.8000100  29.9985600  68.2735040  61.1066420  19.6367800  62.6446770
  60.6634570  20.4177340  62.3131290  61.6651410  19.9597690  63.3517710
  65.3936230  22.5036320  68.2482090  64.9315600  22.7119340  69.0602030
  64.9914340  21.6895670  67.9452760  64.2225240  19.2578500  57.5252600
  63.5979420  19.2538370  58.2505910  64.1355360  18.3909460  57.1288570
  63.1442320  20.1815130  64.5036370  63.4414650  21.0877960  64.4228390
  63.6927880  19.6933910  63.8895940  60.8980640  24.7601370  60.3728020
  60.6721560  24.5438540  61.2774640  60.1173170  25.1929830  60.0273990
  68.1278400  24.7664740  58.9718670  67.5287290  25.4900540  58.7882290
  68.6758010  24.7041520  58.1895120  66.7343270  23.4028280  61.0021950
  67.1272840  23.7200480  60.1890640  67.0960120  22.5240160  61.1166470
  55.7707440  19.9929080  63.2252150  55.4820490  20.5631940  63.9377130
  56.5153200  19.5133530  63.5883380  55.9577670  23.9349200  54.4354870
  55.8752340  24.8779960  54.5769860  55.6060730  23.7924110  53.5567220
  67.3198410  25.9934030  65.0972730  66.5879530  26.5020840  65.4462830
  66.9222750  25.1764010  64.7961510  63.7575800  22.6688230  63.5025220
  63.7611860  22.2278180  62.6529760  64.6526920  22.9905560  63.6097040
  59.6078180  22.5514720  62.4619430  59.2678230  23.0289950  63.2186480
  58.8455500  22.0979840  62.1020530  63.8195950  23.6700310  56.4931980
  63.9408770  23.6286790  57.4417800  63.4344460  24.5324460  56.3378710
  67.7824320  21.4467710  64.5095670  67.7997060  21.8976360  65.3537520
  67.5339900  20.5473350  64.7229110  62.8317450  25.9801450  55.8915280
  62.2634350  25.5319700  55.2651190  63.5406450  26.3394230  55.3580430
  64.0583770  26.7290010  65.2490630  64.4253900  26.2548580  65.9951970
  63.8688830  27.6031580  65.5898970  56.9224260  21.4733700  61.3784100
  56.6371180  21.1089370  62.2162720  56.8603120  20.7414160  60.7647240
  61.8483140  25.7698650  67.5674840  61.5440210  26.6490630  67.7925200
  62.8029600  25.8298440  67.6032280  60.3764930  29.9759640  58.1641690
  59.6027190  29.4357260  58.0040410  61.1059560  29.4566250  57.8259450
  71.1352910  28.9725000  63.9568080  71.8552030  29.4680290  63.5664190
  70.9334730  28.2942890  63.3121950  66.5962850  20.3662960  58.0997470
  65.7827460  19.8676130  58.0242780  66.4024800  21.2061210  57.6833820
  69.3111240  24.7382610  56.3959630  70.1990860  25.0499840  56.2210970
  69.2816330  23.8654860  56.0040210  60.4202330  29.6440020  61.8020500
  60.9381000  28.8408280  61.7477390  59.9686350  29.5819160  62.6437330
  65.3071830  30.9106300  57.0747800  65.6487530  31.6548530  56.5791120
  64.4784540  31.2237420  57.4372630  68.1899240  30.2322140  62.4393310
  68.5423060  29.6350270  61.7794680  67.3061570  29.9066370  62.6101560
  64.2762520  30.9919830  59.8463720  64.9633650  31.5389040  60.2271310
  63.4894940  31.5360560  59.8813330  56.4154920  26.6092650  55.3380800
  57.2849770  26.8917450  55.6216720  55.9245240  27.4228520  55.2229610
  63.5789730  27.9965860  59.4589080  64.0352510  28.8071110  59.6849270
  63.2277940  27.6789000  60.2907570  65.8822340  33.5072200  66.6881380
  66.5264560  33.7131580  67.3654800  66.2451780  32.7460600  66.2352230
  59.4801510  18.3403510  59.9311600  59.3516140  18.3321410  60.8796520
  58.6563530  18.6786600  59.5802610  67.1554420  31.5104550  65.4058830
  67.7976650  30.8097710  65.5191000  67.6803770  32.2902990  65.2255720
  71.0010140  31.7953170  55.1297970  70.7747720  31.0783610  55.7222610
  70.6106340  31.5465610  54.2919720  56.7826170  35.8220030  55.9042430
  57.1423810  36.4209370  55.2499700  56.6418510  36.3679920  56.6777460
  70.5826390  29.7125110  56.7912130  70.2948090  30.1737800  57.5790010
  71.3778560  29.2522880  57.0596350  62.7994790  33.2051230  56.7216100
  62.7904890  33.9380920  56.1060610  61.8793150  32.9582810  56.8143060
  58.4001430  28.4266120  57.4662860  57.7929380  29.1665020  57.4758160
  58.8750780  28.5165480  56.6401060  67.9734220  22.5916940  67.1419750
  68.3415040  21.7712150  67.4699320  67.1132420  22.6518830  67.5575400
  71.3396250  21.5473880  57.9507310  70.7109410  21.6519550  57.2365540
  70.8448170  21.7670660  58.7401190  65.7854390  33.2679470  55.3841290
  65.8866370  33.0643460  54.4543270  64.8856130  33.0137750  55.5889070
  63.3080280  23.8259830  59.3665190  62.5996430  24.2946170  59.8078800
  63.5924760  23.1681840  60.0010380  64.9336210  25.2456530  67.3657720
  65.4321460  25.7202350  68.0309570  65.0759160  24.3220050  67.5727750
  67.3395710  20.5510490  60.8060980  67.2163490  20.5696620  59.8570490
  68.2880270  20.5989430  60.9259380  64.4272500  35.7865790  60.0788960
  64.6814000  35.7487180  59.1568330  63.4784980  35.6599120  60.0717210
  61.5115300  22.1344910  56.7415900  62.3605830  22.5715060  56.6756090
  61.1446570  22.4465170  57.5687960  70.4325080  26.7057670  61.6547470
  69.4915220  26.7207900  61.8295160  70.7469150  25.9193630  62.1007770
  60.4106720  28.3877270  55.2151430  61.1769990  28.2758630  55.7776860
  60.4881410  27.6915240  54.5628200  59.1053480  25.8202340  55.8984320
  59.1857070  24.8729850  56.0101720  59.9973230  26.1509220  56.0044980
  59.9068190  35.9697730  63.0018860  60.6430670  35.4213190  63.2727430
  60.2909110  36.8353740  62.8624850  56.7913670  32.0371300  58.8760370
  55.8653450  32.2792440  58.8665780  57.2570100  32.8645560  58.7545120
  63.0170500  35.1428040  54.8244430  63.8099110  35.4316870  54.3726220
  62.4974850  34.7120210  54.1456910  63.5347900  30.3631450  54.6886780
  63.4298540  29.7483800  55.4148160  63.3672120  29.8397340  53.9049790
  66.7750630  29.4251480  55.2928770  66.2260730  29.8720780  55.9371510
  67.3969890  28.9200730  55.8166440  62.4425750  28.3842400  57.1894070
  62.8642170  28.2182270  58.0325460  62.5676590  27.5742630  56.6949210
  64.9553390  27.4080010  54.4371170  65.4759050  26.6929030  54.0712320
  65.6021790  28.0465880  54.7371680  63.8586910  19.8874560  67.1089730
  63.4104210  19.9098820  66.2635280  63.2252110  19.4893580  67.7060030
  64.2646460  28.7828890  67.7302170  64.6834570  29.6261620  67.5578410
  63.3455090  28.9200930  67.5008950  68.9398260  27.0682260  67.6902520
  68.4133480  27.5924880  67.0867660  69.2829600  27.7009650  68.3212250
  61.3384650  24.4575630  54.1352230  61.1373710  23.5942990  54.4965570
  61.1676700  24.3708990  53.1973830  62.1153880  35.0881900  68.8459900
  61.5774970  35.8127960  68.5268600  62.3687840  34.6112240  68.0557240
  68.8172960  19.2683860  56.6639110  69.0975250  18.4251760  57.0198530
  68.0438690  19.5006970  57.1777860  60.1367450  21.5576250  54.1230110
  60.4393350  21.5643680  53.2149260  60.8762040  21.2074110  54.6197770
  63.3552380  20.5010870  55.1086310  63.0074380  19.8234860  54.5288760
  63.5565150  20.0400380  55.9229700  65.5201420  35.4891620  56.7272910
  66.4152210  35.8276590  56.7491670  65.5519050  34.7671030  56.0997190
  59.1597580  30.8618670  54.9559910  59.5972450  31.4048340  55.6117490
  59.6445310  30.0365620  54.9656250  56.3743380  33.6507700  62.4080170
  56.7046390  32.7828760  62.1758810  56.8034380  33.8566220  63.2385130
  60.9705300  31.9816710  60.0682140  60.6700840  31.8581680  60.9686050
  60.8642790  31.1225300  59.6597870  56.8633590  34.5178290  65.1461800
  56.4264580  34.6979090  65.9785950  57.4311270  35.2752910  65.0043520
  56.6958020  27.0298520  61.5050680  56.0406860  26.7610160  60.8610380
  57.5335970  26.9203000  61.0552660  71.1847410  30.7447270  67.5315270
  70.3707250  31.1744430  67.7941060  71.5921610  31.3565680  66.9184320
  69.6448460  21.8239810  55.7269170  70.0633340  21.6370790  54.8865830
  69.3384520  20.9718860  56.0372100  57.7333950  27.4151090  66.0454020
  58.1006990  27.3278490  66.9250040  57.1644770  26.6517640  65.9460880
  55.9096100  24.2397450  57.4476010  55.0060180  24.5027650  57.2727670
  56.3936720  24.5108620  56.6675970  58.4523310  23.2962990  55.3570390
  59.1615010  22.8746210  54.8717670  57.7363250  23.3638220  54.7253740
  58.0997470  19.3502320  54.3973040  58.8225600  19.8911260  54.7154260
  58.3721990  19.0765740  53.5214580  57.7889660  18.6008510  64.2995660
  58.4365850  18.0505890  63.8590820  58.2091500  18.8551660  65.1211470
  71.2423460  35.4965870  61.0583540  71.8382530  35.1750440  60.3817960
  71.5001610  35.0237690  61.8496810  57.5421660  18.7564180  67.0420980
  57.1936480  19.2128000  67.8079160  57.2109360  17.8621310  67.1243410
  62.8492060  33.4843370  66.8083890  62.6083420  33.7517930  65.9214410
  63.7894700  33.6549100  66.8634750  58.9874060  34.8746030  68.3271950
  58.3934380  34.7430730  69.0661990  58.9797900  34.0384170  67.8614050
  68.4329080  18.1678260  66.5301980  67.5588920  18.5013370  66.3274910
  68.3239830  17.6951440  67.3553850  69.3401060  20.3749130  67.9143700
  69.0114420  19.5600890  67.5345430  70.2883360  20.3318940  67.7909390
  71.7935670  36.1461170  64.8881270  71.3338640  36.8976980  64.5139290
  71.1648130  35.4267640  64.8296070  58.6186290  32.2404410  67.2779990
  57.8920350  31.6209700  67.2105940  58.6795440  32.6345020  66.4078070
  62.2231390  34.4549410  64.0629400  62.7396410  33.8436770  63.5377660
  62.8728770  34.9578190  64.5540410  64.9626890  35.3457900  64.8898380
  65.2504700  35.0912200  64.0131390  65.4750110  34.7935260  65.4803950
  66.1803900  19.0848100  65.4694890  65.3975690  19.5593600  65.7491650
  65.8866830  18.1802930  65.3608070  70.7324970  19.7871200  63.5143980
  71.1733060  19.7316300  62.6665580  70.4632560  20.7029210  63.5854160
  56.9016290  35.5578800  60.4876750  56.7338330  34.9249480  61.1858640
  56.0350800  35.7638200  60.1370940  57.5244310  19.3895580  57.9908610
  58.2823670  19.5024460  57.4172640  57.0621480  20.2264780  57.9452040
  64.0658120  21.5034850  60.9810920  63.2532630  21.1291740  60.6406800
  64.5699760  20.7479930  61.2832110  68.5683100  18.1677300  62.2193990
  69.1712470  18.7397510  62.6942510  67.8276090  18.7316740  61.9967890
  71.7117700  18.5698860  57.4934270  71.9068330  19.4682310  57.7601700
  70.9247570  18.3385940  57.9867220  58.5078990  34.2512030  57.9326890
  57.9826610  34.6320060  57.2288850  58.4323570  34.8762800  58.6536600
  59.8969460  19.9159630  56.5310580  60.4262220  19.1289430  56.4018530
  60.5297780  20.5950820  56.7646110  62.0907300  19.6534770  59.5855970
  61.4610040  18.9522080  59.7526100  61.5512440  20.4138900  59.3689130
  61.1071960  36.1994410  56.8076140  61.8390780  35.9153690  56.2600030
  61.3665630  35.9607690  57.6975520  60.2686750  32.3159140  56.8122470
  59.6395630  32.7844240  57.3608300  60.3834580  31.4708360  57.2468660
  67.7236470  26.3664800  42.9623670  67.6430520  25.4519410  42.6915380
  67.3100890  26.8631870  42.2563380  65.8554510  28.1443820  44.8432940
  65.0796610  27.6644260  45.1331510  66.5067440  27.4649470  44.6689100
  59.8720340  28.4563630  45.7208700  59.0405220  28.2012340  46.1205210
  60.4801320  28.5274400  46.4566620  69.8761940  32.5504010  43.6232070
  69.4143470  31.7791250  43.9519240  70.6887490  32.5770080  44.1284520
  59.8521600  32.4903720  45.9166720  60.1549640  31.6001460  45.7376940
  60.5965190  33.0473940  45.6888970  58.2812290  23.4165520  39.5051090
  57.3928990  23.7581490  39.4030970  58.5653480  23.2165840  38.6131920
  56.2445300  26.0171170  45.3890790  56.8161410  25.2493370  45.3894430
  56.2446840  26.3159930  44.4797400  66.1025250  34.8362020  43.2436060
  65.4836690  35.2919520  42.6730500  66.9577030  34.9913480  42.8425760
  65.2963500  30.8201010  44.8503100  65.2271780  29.8790950  44.6892230
  66.0583360  30.9102420  45.4225670  57.4870170  21.4255530  47.1759720
  57.3073010  20.5281280  47.4562480  57.0850250  21.9727400  47.8506670
  66.3268670  23.6271390  45.0772030  66.7033490  22.7543270  44.9645700
  66.2288180  23.9630090  44.1862470  60.4573680  21.9997020  40.5389470
  60.5640430  22.9000750  40.8458230  59.5466040  21.9514990  40.2484120
  70.1092790  21.1221830  42.0100370  70.9302410  20.6318400  42.0525850
  70.1426870  21.7119490  42.7632210  58.1056840  23.9216030  45.7842060
  58.7866950  24.1854400  46.4029460  57.7904890  23.0816900  46.1180070
  62.2981410  24.9683390  44.8714650  62.8059630  25.4664360  45.5119670
  62.8294650  24.1918590  44.6954010  60.5817510  19.6081950  49.1378070
  60.5835950  20.1254340  48.3323970  59.7521820  19.1312130  49.1148000
  66.9688600  29.7201260  40.6367970  66.3505870  30.1850710  40.0730690
  67.4811850  30.4128740  41.0537480  61.8320360  29.2477130  47.3151570
  61.4989740  29.8746050  47.9572640  62.0087040  29.7739010  46.5353240
  70.3454270  23.0622210  44.7827910  69.6409840  23.3507100  45.3631020
  70.7066430  23.8722320  44.4227470  60.2632840  21.3191910  47.1448520
  60.6049650  22.1633960  46.8502390  59.3248650  21.4675650  47.2613860
  61.0439460  31.2157930  49.1300750  61.6613460  31.8909010  48.8485200
  60.1832580  31.6245910  49.0388250  56.3371800  30.4057790  38.0107600
  55.9599780  30.8944890  37.2792500  56.5944870  31.0783070  38.6414130
  63.9460730  18.8074180  43.4693110  64.2535710  18.2521070  42.7528610
  63.0161430  18.9418640  43.2866100  69.4975790  34.5241470  45.7600570
  69.5102950  34.1203760  44.8922830  68.9451010  35.2988760  45.6562000
  70.7921210  31.2457690  40.8490740  70.6817540  30.3032020  40.9740160
  70.7889460  31.6073330  41.7353500  68.8961230  29.4271310  47.0883180
  69.3130020  29.2131420  46.2536640  69.6201050  29.6844100  47.6591800
  66.3341490  26.8723010  40.2053230  65.4070770  26.8060390  40.4341700
  66.4866310  27.8103140  40.0908470  66.3210570  23.1440010  37.2020390
  65.3814240  23.3053970  37.2872850  66.6393830  23.8625690  36.6556380
  70.3638780  28.4343310  40.7088480  69.7451200  28.0962860  40.0614780
  70.3463230  27.7903070  41.4167670  69.8065340  24.6127850  48.1254290
  69.3936520  25.4381560  48.3794280  69.0741290  24.0272890  47.9330650
  61.9398130  27.3987750  42.9872960  61.5355130  26.6865000  42.4918860
  62.0261250  27.0540990  43.8761000  60.6526750  24.1730960  46.7672000
  61.2041340  24.2826300  45.9925250  61.1670260  24.5468560  47.4827230
  70.4965440  34.6587180  48.8135270  70.0196000  35.4659370  48.6207880
  69.8127230  34.0065510  48.9661480  61.4998260  30.8237000  51.8019970
  60.6026790  31.0476970  52.0493370  61.5251130  30.9471940  50.8531370
  68.5403480  27.6730120  37.7161230  68.9796760  26.8352550  37.5699050
  69.2531900  28.3059520  37.8025370  60.3269480  27.6950320  50.3777340
  60.1877250  28.5673120  50.7464740  59.4450840  27.3523130  50.2325280
  66.6498860  32.6126190  41.6842470  67.0894770  33.3550520  41.2697860
  66.5885750  32.8552760  42.6081430  62.1249830  33.6372020  52.5862490
  62.0965260  34.0414970  51.7190920  61.9614800  32.7082380  52.4234090
  58.6402760  26.2932730  40.4879610  58.5200360  27.0194820  39.8760880
  58.3303650  25.5235640  40.0107520  56.2788130  29.4647870  46.2948250
  56.3568550  29.5996640  45.3503970  56.8929810  28.7563760  46.4876370
  57.5235760  31.1648060  42.7054430  57.1163840  31.3062650  41.8508030
  58.4148770  30.8808220  42.5025640  67.3414640  35.3139970  49.6121480
  67.8559310  35.2247980  50.4143910  66.4983720  35.6599670  49.9049390
  69.3169040  35.5995310  39.0405480  69.1570180  35.3098250  39.9387310
  69.1515750  34.8235440  38.5050710  61.7957420  35.3793840  40.8177100
  61.6199900  34.4629380  40.6044900  60.9413160  35.7381130  41.0574900
  69.0195170  33.1082870  37.6003480  68.3260330  33.1060160  36.9405760
  69.7618030  32.6842190  37.1697650  68.5845100  34.7345580  41.6751970
  69.0402050  33.9534960  41.9890590  68.9237620  35.4452400  42.2193150
  56.3347650  30.5062040  48.8342710  56.4978690  30.0367400  48.0162080
  56.8000100  29.9985600  49.4991550  61.1066420  19.6367800  43.8703280
  60.6634570  20.4177340  43.5387800  61.6651410  19.9597690  44.5774220
  65.3936230  22.5036320  49.4738600  64.9315600  22.7119340  50.2858540
  64.9914340  21.6895670  49.1709270  70.3940740  23.7245270  50.6035260
  69.5434330  23.4251020  50.9244330  70.2342530  23.9687280  49.6919080
  67.4890450  25.2247020  52.7034050  67.8143860  24.3910770  52.3636280
  68.2770780  25.7475540  52.8512380  64.2225240  19.2578500  38.7509110
  63.5979420  19.2538370  39.4762420  64.1355360  18.3909460  38.3545080
  63.1442320  20.1815130  45.7292880  63.4414650  21.0877960  45.6484900
  63.6927880  19.6933910  45.1152450  60.8980640  24.7601370  41.5984530
  60.6721560  24.5438540  42.5031150  60.1173170  25.1929830  41.2530500
  68.1278400  24.7664740  40.1975180  67.5287290  25.4900540  40.0138800
  68.6758010  24.7041520  39.4151630  63.3379850  25.6586950  52.2644800
  63.2423450  24.7181680  52.1145200  64.1811830  25.8802020  51.8692870
  66.7343270  23.4028280  42.2278460  67.1272840  23.7200480  41.4147150
  67.0960120  22.5240160  42.3422980  58.4690390  22.0700620  50.4178580
  58.0753780  22.9175830  50.6251360  57.7808790  21.4326990  50.6087220
  65.0435440  22.1535590  53.4875320  64.3533760  21.9607790  54.1221410
  65.7867740  22.4370230  54.0199620  55.7707440  19.9929080  44.4508660
  55.4820490  20.5631940  45.1633640  56.5153200  19.5133530  44.8139890
  55.9577670  23.9349200  35.6611380  55.8752340  24.8779960  35.8026370
  55.6060730  23.7924110  34.7823730  67.3198410  25.9934030  46.3229240
  66.5879530  26.5020840  46.6719340  66.9222750  25.1764010  46.0218020
  63.7575800  22.6688230  44.7281730  63.7611860  22.2278180  43.8786270
  64.6526920  22.9905560  44.8353550  59.6078180  22.5514720  43.6875940
  59.2678230  23.0289950  44.4442990  58.8455500  22.0979840  43.3277040
  63.8195950  23.6700310  37.7188490  63.9408770  23.6286790  38.6674310
  63.4344460  24.5324460  37.5635220  67.7824320  21.4467710  45.7352180
  67.7997060  21.8976360  46.5794030  67.5339900  20.5473350  45.9485620
  62.8317450  25.9801450  37.1171790  62.2634350  25.5319700  36.4907700
  63.5406450  26.3394230  36.5836940  71.2095070  18.8599890  51.5738560
  71.5340840  18.1289550  52.0996540  71.2451580  18.5413530  50.6719550
  57.9086630  29.8813470  50.9938520  57.5241420  29.2407140  51.5921480
  58.2198820  30.5849590  51.5633250  64.0583770  26.7290010  46.4747140
  64.4253900  26.2548580  47.2208480  63.8688830  27.6031580  46.8155480
  56.9224260  21.4733700  42.6040610  56.6371180  21.1089370  43.4419230
  56.8603120  20.7414160  41.9903750  61.8483140  25.7698650  48.7931350
  61.5440210  26.6490630  49.0181710  62.8029600  25.8298440  48.8288790
  60.3764930  29.9759640  39.3898200  59.6027190  29.4357260  39.2296920
  61.1059560  29.4566250  39.0515960  71.1352910  28.9725000  45.1824590
  71.8552030  29.4680290  44.7920700  70.9334730  28.2942890  44.5378460
  66.5962850  20.3662960  39.3253980  65.7827460  19.8676130  39.2499290
  66.4024800  21.2061210  38.9090330  66.5171710  29.0434060  51.0693590
  66.4509020  28.1229730  50.8151180  65.8876850  29.1409500  51.7838230
  69.3111240  24.7382610  37.6216140  70.1990860  25.0499840  37.4467480
  69.2816330  23.8654860  37.2296720  60.4202330  29.6440020  43.0277010
  60.9381000  28.8408280  42.9733900  59.9686350  29.5819160  43.8693840
  65.3071830  30.9106300  38.3004310  65.6487530  31.6548530  37.8047630
  64.4784540  31.2237420  38.6629140  57.9046870  26.6101390  49.9402710
  57.5461810  27.2755240  50.5276050  57.6101430  25.7784940  50.3115330
  61.1059990  27.0685630  52.8242260  60.8060130  27.2142810  51.9270080
  61.8771230  26.5090920  52.7315650  66.4488440  31.8654630  50.8197390
  66.4632980  30.9335590  50.6016300  65.7413540  31.9514390  51.4587160
  68.1899240  30.2322140  43.6649820  68.5423060  29.6350270  43.0051190
  67.3061570  29.9066370  43.8358070  64.2762520  30.9919830  41.0720230
  64.9633650  31.5389040  41.4527820  63.4894940  31.5360560  41.1069840
  56.4154920  26.6092650  36.5637310  57.2849770  26.8917450  36.8473230
  55.9245240  27.4228520  36.4486120  63.5789730  27.9965860  40.6845590
  64.0352510  28.8071110  40.9105780  63.2277940  27.6789000  41.5164080
  65.8822340  33.5072200  47.9137890  66.5264560  33.7131580  48.5911310
  66.2451780  32.7460600  47.4608740  59.4801510  18.3403510  41.1568110
  59.3516140  18.3321410  42.1053030  58.6563530  18.6786600  40.8059120
  67.1554420  31.5104550  46.6315340  67.7976650  30.8097710  46.7447510
  67.6803770  32.2902990  46.4512230  71.0010140  31.7953170  36.3554480
  70.7747720  31.0783610  36.9479120  70.6106340  31.5465610  35.5176230
  68.9292040  32.3099450  49.8351400  69.2648280  32.8966140  50.5129320
  68.0092380  32.1792160  50.0649190  56.7826170  35.8220030  37.1298940
  57.1423810  36.4209370  36.4756210  56.6418510  36.3679920  37.9033970
  56.4795440  20.0994630  50.6174810  55.7653960  20.2991550  51.2227420
  56.8990480  19.3234200  50.9889610  70.5826390  29.7125110  38.0168640
  70.2948090  30.1737800  38.8046520  71.3778560  29.2522880  38.2852860
  56.7668030  34.0874890  51.6041340  56.8759150  33.1469630  51.4636730
  56.1148590  34.3529640  50.9555070  64.7580620  32.3590780  53.0039460
  64.4377490  31.6400020  53.5485150  64.0838980  33.0345850  53.0775520
  62.7994790  33.2051230  37.9472610  62.7904890  33.9380920  37.3317120
  61.8793150  32.9582810  38.0399570  58.4001430  28.4266120  38.6919370
  57.7929380  29.1665020  38.7014670  58.8750780  28.5165480  37.8657570
  67.9734220  22.5916940  48.3676260  68.3415040  21.7712150  48.6955830
  67.1132420  22.6518830  48.7831910  71.3396250  21.5473880  39.1763820
  70.7109410  21.6519550  38.4622050  70.8448170  21.7670660  39.9657700
  65.7854390  33.2679470  36.6097800  65.8866370  33.0643460  35.6799780
  64.8856130  33.0137750  36.8145580  63.3080280  23.8259830  40.5921700
  62.5996430  24.2946170  41.0335310  63.5924760  23.1681840  41.2266890
  64.9336210  25.2456530  48.5914230  65.4321460  25.7202350  49.2566080
  65.0759160  24.3220050  48.7984260  67.3395710  20.5510490  42.0317490
  67.2163490  20.5696620  41.0827000  68.2880270  20.5989430  42.1515890
  64.4272500  35.7865790  41.3045470  64.6814000  35.7487180  40.3824840
  63.4784980  35.6599120  41.2973720  61.5115300  22.1344910  37.9672410
  62.3605830  22.5715060  37.9012600  61.1446570  22.4465170  38.7944470
  70.4325080  26.7057670  42.8803980  69.4915220  26.7207900  43.0551670
  70.7469150  25.9193630  43.3264280  60.4106720  28.3877270  36.4407940
  61.1769990  28.2758630  37.0033370  60.4881410  27.6915240  35.7884710
  59.1053480  25.8202340  37.1240830  59.1857070  24.8729850  37.2358230
  59.9973230  26.1509220  37.2301490  59.9068190  35.9697730  44.2275370
  60.6430670  35.4213190  44.4983940  60.2909110  36.8353740  44.0881360
  56.7913670  32.0371300  40.1016880  55.8653450  32.2792440  40.0922290
  57.2570100  32.8645560  39.9801630  58.9126470  35.1543800  53.4160950
  59.7139200  35.4755850  53.8296350  58.3978290  34.7939380  54.1380860
  63.0170500  35.1428040  36.0500940  63.8099110  35.4316870  35.5982730
  62.4974850  34.7120210  35.3713420  67.7491100  31.2623670  53.3636360
  67.1429260  31.2855270  52.6232110  67.4445210  30.5306710  53.9003610
  69.1791470  34.9903960  51.9745770  70.1313220  34.9061980  51.9246010
  69.0319690  35.6545670  52.6479560  56.6324280  27.6417260  52.3597000
  57.1363300  27.0624540  52.9313230  55.8931700  27.9257490  52.8973370
  63.5347900  30.3631450  35.9143290  63.4298540  29.7483800  36.6404670
  63.3672120  29.8397340  35.1306300  63.6862220  29.0488250  51.8932520
  62.9207890  29.6173250  51.8087190  63.8678180  28.7564460  51.0000750
  66.7750630  29.4251480  36.5185280  66.2260730  29.8720780  37.1628020
  67.3969890  28.9200730  37.0422950  70.8285570  30.7793580  52.4507540
  71.5695040  31.1169340  51.9475000  70.0658250  30.9485640  51.8977310
  58.6647360  25.7846850  53.2547070  58.7052700  25.4860720  54.1632300
  59.5192860  26.1854460  53.0954590  62.4425750  28.3842400  38.4150580
  62.8642170  28.2182270  39.2581970  62.5676590  27.5742630  37.9205720
  60.6053170  24.3638950  51.2221560  60.0749630  23.8729900  50.5944900
  61.2741240  24.7923150  50.6879490  64.9553390  27.4080010  35.6627680
  65.4759050  26.6929030  35.2968830  65.6021790  28.0465880  35.9628190
  69.5031230  28.8308410  50.9862750  69.9172250  28.9853490  51.8353170
  68.5682230  28.9563630  51.1488530  69.9753400  26.1704570  52.9901900
  70.5574170  25.4156890  52.9022380  70.1515170  26.7012010  52.2133380
  61.0925470  21.3301320  51.3018850  60.9982340  20.7122070  50.5769720
  60.5122860  22.0567610  51.0748760  63.8586910  19.8874560  48.3346240
  63.4104210  19.9098820  47.4891790  63.2252110  19.4893580  48.9316540
  64.2646460  28.7828890  48.9558680  64.6834570  29.6261620  48.7834920
  63.3455090  28.9200930  48.7265460  66.6010360  26.5145070  50.3396520
  66.7206570  25.9186210  51.0791360  67.4604360  26.5514760  49.9197820
  68.9398260  27.0682260  48.9159030  68.4133480  27.5924880  48.3124170
  69.2829600  27.7009650  49.5468760  61.3384650  24.4575630  35.3608740
  61.1373710  23.5942990  35.7222080  61.1676700  24.3708990  34.4230340
  62.1153880  35.0881900  50.0716410  61.5774970  35.8127960  49.7525110
  62.3687840  34.6112240  49.2813750  63.3679130  23.0566420  51.5972340
  63.9578820  22.7482270  52.2850160  62.5499370  22.5846170  51.7532240
  68.1872560  22.6732230  51.8305360  67.4988080  22.0113770  51.7655350
  68.9078580  22.2270500  52.2753820  68.8172960  19.2683860  37.8895620
  69.0975250  18.4251760  38.2455040  68.0438690  19.5006970  38.4034370
  60.1367450  21.5576250  35.3486620  60.4393350  21.5643680  34.4405770
  60.8762040  21.2074110  35.8454280  64.9716090  36.3233110  50.3303060
  64.8974790  37.2268250  50.6375430  64.0694930  36.0045010  50.3025130
  63.3552380  20.5010870  36.3342820  63.0074380  19.8234860  35.7545270
  63.5565150  20.0400380  37.1486210  65.5201420  35.4891620  37.9529420
  66.4152210  35.8276590  37.9748180  65.5519050  34.7671030  37.3253700
  59.1597580  30.8618670  36.1816420  59.5972450  31.4048340  36.8374000
  59.6445310  30.0365620  36.1912760  56.3743380  33.6507700  43.6336680
  56.7046390  32.7828760  43.4015320  56.8034380  33.8566220  44.4641640
  60.9705300  31.9816710  41.2938650  60.6700840  31.8581680  42.1942560
  60.8642790  31.1225300  40.8854380  56.8633590  34.5178290  46.3718310
  56.4264580  34.6979090  47.2042460  57.4311270  35.2752910  46.2300030
  56.6958020  27.0298520  42.7307190  56.0406860  26.7610160  42.0866890
  57.5335970  26.9203000  42.2809170  71.1847410  30.7447270  48.7571780
  70.3707250  31.1744430  49.0197570  71.5921610  31.3565680  48.1440830
  69.6448460  21.8239810  36.9525680  70.0633340  21.6370790  36.1122340
  69.3384520  20.9718860  37.2628610  57.7333950  27.4151090  47.2710530
  58.1006990  27.3278490  48.1506550  57.1644770  26.6517640  47.1717390
  57.2849950  24.3260180  51.1768950  56.3906000  24.2926940  51.5162660
  57.8247500  24.5246970  51.9420200  70.9725880  21.1091900  53.0620700
  71.8496060  21.1175300  53.4454700  70.9846720  20.3722740  52.4513050
  55.9096100  24.2397450  38.6732520  55.0060180  24.5027650  38.4984180
  56.3936720  24.5108620  37.8932480  58.4523310  23.2962990  36.5826900
  59.1615010  22.8746210  36.0974180  57.7363250  23.3638220  35.9510250
  58.0997470  19.3502320  35.6229550  58.8225600  19.8911260  35.9410770
  58.3721990  19.0765740  34.7471090  57.7889660  18.6008510  45.5252170
  58.4365850  18.0505890  45.0847330  58.2091500  18.8551660  46.3467980
  71.2423460  35.4965870  42.2840050  71.8382530  35.1750440  41.6074470
  71.5001610  35.0237690  43.0753320  57.5421660  18.7564180  48.2677490
  57.1936480  19.2128000  49.0335670  57.2109360  17.8621310  48.3499920
  59.1486030  31.9283780  52.4330680  59.1055660  31.5576690  53.3145140
  59.2797040  32.8661350  52.5732500  62.8492060  33.4843370  48.0340400
  62.6083420  33.7517930  47.1470920  63.7894700  33.6549100  48.0891260
  65.0546480  19.9476060  51.7896910  64.9935370  20.5397890  52.5392320
  65.9946860  19.8402020  51.6447170  67.6921040  19.6046120  51.4289200
  68.3061450  19.9225410  50.7670280  68.2370600  19.1194710  52.0485060
  58.2142300  18.2840380  51.5428260  58.7625290  18.1028430  50.7794370
  58.2797610  17.4934490  52.0784570  58.9874060  34.8746030  49.5528460
  58.3934380  34.7430730  50.2918500  58.9797900  34.0384170  49.0870560
  68.4329080  18.1678260  47.7558490  67.5588920  18.5013370  47.5531420
  68.3239830  17.6951440  48.5810360  69.3401060  20.3749130  49.1400210
  69.0114420  19.5600890  48.7601940  70.2883360  20.3318940  49.0165900
  71.7935670  36.1461170  46.1137780  71.3338640  36.8976980  45.7395800
  71.1648130  35.4267640  46.0552580  58.6186290  32.2404410  48.5036500
  57.8920350  31.6209700  48.4362450  58.6795440  32.6345020  47.6334580
  62.2231390  34.4549410  45.2885910  62.7396410  33.8436770  44.7634170
  62.8728770  34.9578190  45.7796920  64.9626890  35.3457900  46.1154890
  65.2504700  35.0912200  45.2387900  65.4750110  34.7935260  46.7060460
  66.1803900  19.0848100  46.6951400  65.3975690  19.5593600  46.9748160
  65.8866830  18.1802930  46.5864580  70.7324970  19.7871200  44.7400490
  71.1733060  19.7316300  43.8922090  70.4632560  20.7029210  44.8110670
  56.9016290  35.5578800  41.7133260  56.7338330  34.9249480  42.4115150
  56.0350800  35.7638200  41.3627450  57.5244310  19.3895580  39.2165120
  58.2823670  19.5024460  38.6429150  57.0621480  20.2264780  39.1708550
  64.0658120  21.5034850  42.2067430  63.2532630  21.1291740  41.8663310
  64.5699760  20.7479930  42.5088620  68.5683100  18.1677300  43.4450500
  69.1712470  18.7397510  43.9199020  67.8276090  18.7316740  43.2224400
  71.7117700  18.5698860  38.7190780  71.9068330  19.4682310  38.9858210
  70.9247570  18.3385940  39.2123730  58.5078990  34.2512030  39.1583400
  57.9826610  34.6320060  38.4545360  58.4323570  34.8762800  39.8793110
  59.8969460  19.9159630  37.7567090  60.4262220  19.1289430  37.6275040
  60.5297780  20.5950820  37.9902620  62.0907300  19.6534770  40.8112480
  61.4610040  18.9522080  40.9782610  61.5512440  20.4138900  40.5945640
  65.0299250  36.2674000  53.4823090  65.9566560  36.0318270  53.5259050
  65.0149680  37.0946000  53.0009120  62.2162860  18.9318750  53.2464970
  61.9347130  19.4352350  52.4825790  62.5982560  18.1340500  52.8807100
  61.1071960  36.1994410  38.0332650  61.8390780  35.9153690  37.4856540
  61.3665630  35.9607690  38.9232030  60.2686750  32.3159140  38.0378980
  59.6395630  32.7844240  38.5864810  60.3834580  31.4708360  38.4725170
  68.8178320  18.3472330  53.8245440  68.7043770  18.6666940  54.7196960
  69.6348060  18.7484840  53.5282720  67.7236470  26.3664800  24.1880180
  67.6430520  25.4519410  23.9171890  67.3100890  26.8631870  23.4819890
  65.8554510  28.1443820  26.0689450  65.0796610  27.6644260  26.3588020
  66.5067440  27.4649470  25.8945610  59.8720340  28.4563630  26.9465210
  59.0405220  28.2012340  27.3461720  60.4801320  28.5274400  27.6823130
  69.8761940  32.5504010  24.8488580  69.4143470  31.7791250  25.1775750
  70.6887490  32.5770080  25.3541030  59.8521600  32.4903720  27.1423230
  60.1549640  31.6001460  26.9633450  60.5965190  33.0473940  26.9145480
  58.2812290  23.4165520  20.7307600  57.3928990  23.7581490  20.6287480
  58.5653480  23.2165840  19.8388430  56.2445300  26.0171170  26.6147300
  56.8161410  25.2493370  26.6150940  56.2446840  26.3159930  25.7053910
  66.1025250  34.8362020  24.4692570  65.4836690  35.2919520  23.8987010
  66.9577030  34.9913480  24.0682270  65.2963500  30.8201010  26.0759610
  65.2271780  29.8790950  25.9148740  66.0583360  30.9102420  26.6482180
  57.4870170  21.4255530  28.4016230  57.3073010  20.5281280  28.6818990
  57.0850250  21.9727400  29.0763180  66.3268670  23.6271390  26.3028540
  66.7033490  22.7543270  26.1902210  66.2288180  23.9630090  25.4118980
  60.4573680  21.9997020  21.7645980  60.5640430  22.9000750  22.0714740
  59.5466040  21.9514990  21.4740630  70.1092790  21.1221830  23.2356880
  70.9302410  20.6318400  23.2782360  70.1426870  21.7119490  23.9888720
  58.1056840  23.9216030  27.0098570  58.7866950  24.1854400  27.6285970
  57.7904890  23.0816900  27.3436580  62.2981410  24.9683390  26.0971160
  62.8059630  25.4664360  26.7376180  62.8294650  24.1918590  25.9210520
  60.5817510  19.6081950  30.3634580  60.5835950  20.1254340  29.5580480
  59.7521820  19.1312130  30.3404510  66.9688600  29.7201260  21.8624480
  66.3505870  30.1850710  21.2987200  67.4811850  30.4128740  22.2793990
  61.8320360  29.2477130  28.5408080  61.4989740  29.8746050  29.1829150
  62.0087040  29.7739010  27.7609750  70.3454270  23.0622210  26.0084420
  69.6409840  23.3507100  26.5887530  70.7066430  23.8722320  25.6483980
  60.2632840  21.3191910  28.3705030  60.6049650  22.1633960  28.0758900
  59.3248650  21.4675650  28.4870370  61.0439460  31.2157930  30.3557260
  61.6613460  31.8909010  30.0741710  60.1832580  31.6245910  30.2644760
  56.3371800  30.4057790  19.2364110  55.9599780  30.8944890  18.5049010
  56.5944870  31.0783070  19.8670640  63.9460730  18.8074180  24.6949620
  64.2535710  18.2521070  23.9785120  63.0161430  18.9418640  24.5122610
  69.4975790  34.5241470  26.9857080  69.5102950  34.1203760  26.1179340
  68.9451010  35.2988760  26.8818510  70.7921210  31.2457690  22.0747250
  70.6817540  30.3032020  22.1996670  70.7889460  31.6073330  22.9610010
  68.8961230  29.4271310  28.3139690  69.3130020  29.2131420  27.4793150
  69.6201050  29.6844100  28.8848310  66.3341490  26.8723010  21.4309740
  65.4070770  26.8060390  21.6598210  66.4866310  27.8103140  21.3164980
  66.3210570  23.1440010  18.4276900  65.3814240  23.3053970  18.5129360
  66.6393830  23.8625690  17.8812890  70.3638780  28.4343310  21.9344990
  69.7451200  28.0962860  21.2871290  70.3463230  27.7903070  22.6424180
  69.8065340  24.6127850  29.3510800  69.3936520  25.4381560  29.6050790
  69.0741290  24.0272890  29.1587160  61.9398130  27.3987750  24.2129470
  61.5355130  26.6865000  23.7175370  62.0261250  27.0540990  25.1017510
  62.4079830  31.0855310  26.3768680  62.1108120  30.4800780  25.6976460
  63.3579650  31.1232620  26.2658040  60.6526750  24.1730960  27.9928510
  61.2041340  24.2826300  27.2181760  61.1670260  24.5468560  28.7083740
  70.4965440  34.6587180  30.0391780  70.0196000  35.4659370  29.8464390
  69.8127230  34.0065510  30.1917990  61.4998260  30.8237000  33.0276480
  60.6026790  31.0476970  33.2749880  61.5251130  30.9471940  32.0787880
  68.5403480  27.6730120  18.9417740  68.9796760  26.8352550  18.7955560
  69.2531900  28.3059520  19.0281880  60.3269480  27.6950320  31.6033850
  60.1877250  28.5673120  31.9721250  59.4450840  27.3523130  31.4581790
  66.6498860  32.6126190  22.9098980  67.0894770  33.3550520  22.4954370
  66.5885750  32.8552760  23.8337940  62.1249830  33.6372020  33.8119000
  62.0965260  34.0414970  32.9447430  61.9614800  32.7082380  33.6490600
  58.6402760  26.2932730  21.7136120  58.5200360  27.0194820  21.1017390
  58.3303650  25.5235640  21.2364030  56.2788130  29.4647870  27.5204760
  56.3568550  29.5996640  26.5760480  56.8929810  28.7563760  27.7132880
  57.5235760  31.1648060  23.9310940  57.1163840  31.3062650  23.0764540
  58.4148770  30.8808220  23.7282150  67.3414640  35.3139970  30.8377990
  67.8559310  35.2247980  31.6400420  66.4983720  35.6599670  31.1305900
  69.3169040  35.5995310  20.2661990  69.1570180  35.3098250  21.1643820
  69.1515750  34.8235440  19.7307220  61.7957420  35.3793840  22.0433610
  61.6199900  34.4629380  21.8301410  60.9413160  35.7381130  22.2831410
  69.0195170  33.1082870  18.8259990  68.3260330  33.1060160  18.1662270
  69.7618030  32.6842190  18.3954160  68.5845100  34.7345580  22.9008480
  69.0402050  33.9534960  23.2147100  68.9237620  35.4452400  23.4449660
  56.3347650  30.5062040  30.0599220  56.4978690  30.0367400  29.2418590
  56.8000100  29.9985600  30.7248060  61.1066420  19.6367800  25.0959790
  60.6634570  20.4177340  24.7644310  61.6651410  19.9597690  25.8030730
  65.3936230  22.5036320  30.6995110  64.9315600  22.7119340  31.5115050
  64.9914340  21.6895670  30.3965780  70.3940740  23.7245270  31.8291770
  69.5434330  23.4251020  32.1500840  70.2342530  23.9687280  30.9175590
  67.4890450  25.2247020  33.9290560  67.8143860  24.3910770  33.5892790
  68.2770780  25.7475540  34.0768890  64.2225240  19.2578500  19.9765620
  63.5979420  19.2538370  20.7018930  64.1355360  18.3909460  19.5801590
  63.1442320  20.1815130  26.9549390  63.4414650  21.0877960  26.8741410
  63.6927880  19.6933910  26.3408960  60.8980640  24.7601370  22.8241040
  60.6721560  24.5438540  23.7287660  60.1173170  25.1929830  22.4787010
  68.1278400  24.7664740  21.4231690  67.5287290  25.4900540  21.2395310
  68.6758010  24.7041520  20.6408140  63.3379850  25.6586950  33.4901310
  63.2423450  24.7181680  33.3401710  64.1811830  25.8802020  33.0949380
  66.7343270  23.4028280  23.4534970  67.1272840  23.7200480  22.6403660
  67.0960120  22.5240160  23.5679490  58.4690390  22.0700620  31.6435090
  58.0753780  22.9175830  31.8507870  57.7808790  21.4326990  31.8343730
  65.0435440  22.1535590  34.7131830  64.3533760  21.9607790  35.3477920
  65.7867740  22.4370230  35.2456130  55.7707440  19.9929080  25.6765170
  55.4820490  20.5631940  26.3890150  56.5153200  19.5133530  26.0396400
  55.9577670  23.9349200  16.8867890  55.8752340  24.8779960  17.0282880
  55.6060730  23.7924110  16.0080240  67.3198410  25.9934030  27.5485750
  66.5879530  26.5020840  27.8975850  66.9222750  25.1764010  27.2474530
  63.7575800  22.6688230  25.9538240  63.7611860  22.2278180  25.1042780
  64.6526920  22.9905560  26.0610060  59.6078180  22.5514720  24.9132450
  59.2678230  23.0289950  25.6699500  58.8455500  22.0979840  24.5533550
  63.8195950  23.6700310  18.9445000  63.9408770  23.6286790  19.8930820
  63.4344460  24.5324460  18.7891730  67.7824320  21.4467710  26.9608690
  67.7997060  21.8976360  27.8050540  67.5339900  20.5473350  27.1742130
  62.8317450  25.9801450  18.3428300  62.2634350  25.5319700  17.7164210
  63.5406450  26.3394230  17.8093450  71.2095070  18.8599890  32.7995070
  71.5340840  18.1289550  33.3253050  71.2451580  18.5413530  31.8976060
  57.9086630  29.8813470  32.2195030  57.5241420  29.2407140  32.8177990
  58.2198820  30.5849590  32.7889760  64.0583770  26.7290010  27.7003650
  64.4253900  26.2548580  28.4464990  63.8688830  27.6031580  28.0411990
  56.9224260  21.4733700  23.8297120  56.6371180  21.1089370  24.6675740
  56.8603120  20.7414160  23.2160260  61.8483140  25.7698650  30.0187860
  61.5440210  26.6490630  30.2438220  62.8029600  25.8298440  30.0545300
  60.3764930  29.9759640  20.6154710  59.6027190  29.4357260  20.4553430
  61.1059560  29.4566250  20.2772470  71.1352910  28.9725000  26.4081100
  71.8552030  29.4680290  26.0177210  70.9334730  28.2942890  25.7634970
  66.5962850  20.3662960  20.5510490  65.7827460  19.8676130  20.4755800
  66.4024800  21.2061210  20.1346840  66.5171710  29.0434060  32.2950100
  66.4509020  28.1229730  32.0407690  65.8876850  29.1409500  33.0094740
  69.3111240  24.7382610  18.8472650  70.1990860  25.0499840  18.6723990
  69.2816330  23.8654860  18.4553230  60.4202330  29.6440020  24.2533520
  60.9381000  28.8408280  24.1990410  59.9686350  29.5819160  25.0950350
  65.3071830  30.9106300  19.5260820  65.6487530  31.6548530  19.0304140
  64.4784540  31.2237420  19.8885650  57.9046870  26.6101390  31.1659220
  57.5461810  27.2755240  31.7532560  57.6101430  25.7784940  31.5371840
  61.1059990  27.0685630  34.0498770  60.8060130  27.2142810  33.1526590
  61.8771230  26.5090920  33.9572160  66.4488440  31.8654630  32.0453900
  66.4632980  30.9335590  31.8272810  65.7413540  31.9514390  32.6843670
  68.1899240  30.2322140  24.8906330  68.5423060  29.6350270  24.2307700
  67.3061570  29.9066370  25.0614580  64.2762520  30.9919830  22.2976740
  64.9633650  31.5389040  22.6784330  63.4894940  31.5360560  22.3326350
  56.4154920  26.6092650  17.7893820  57.2849770  26.8917450  18.0729740
  55.9245240  27.4228520  17.6742630  63.5789730  27.9965860  21.9102100
  64.0352510  28.8071110  22.1362290  63.2277940  27.6789000  22.7420590
  65.8822340  33.5072200  29.1394400  66.5264560  33.7131580  29.8167820
  66.2451780  32.7460600  28.6865250  59.4801510  18.3403510  22.3824620
  59.3516140  18.3321410  23.3309540  58.6563530  18.6786600  22.0315630
  67.1554420  31.5104550  27.8571850  67.7976650  30.8097710  27.9704020
  67.6803770  32.2902990  27.6768740  71.0010140  31.7953170  17.5810990
  70.7747720  31.0783610  18.1735630  70.6106340  31.5465610  16.7432740
  68.9292040  32.3099450  31.0607910  69.2648280  32.8966140  31.7385830
  68.0092380  32.1792160  31.2905700  56.7826170  35.8220030  18.3555450
  57.1423810  36.4209370  17.7012720  56.6418510  36.3679920  19.1290480
  56.4795440  20.0994630  31.8431320  55.7653960  20.2991550  32.4483930
  56.8990480  19.3234200  32.2146120  70.5826390  29.7125110  19.2425150
  70.2948090  30.1737800  20.0303030  71.3778560  29.2522880  19.5109370
  56.7668030  34.0874890  32.8297850  56.8759150  33.1469630  32.6893240
  56.1148590  34.3529640  32.1811580  64.7580620  32.3590780  34.2295970
  64.4377490  31.6400020  34.7741660  64.0838980  33.0345850  34.3032030
  62.7994790  33.2051230  19.1729120  62.7904890  33.9380920  18.5573630
  61.8793150  32.9582810  19.2656080  58.4001430  28.4266120  19.9175880
  57.7929380  29.1665020  19.9271180  58.8750780  28.5165480  19.0914080
  67.9734220  22.5916940  29.5932770  68.3415040  21.7712150  29.9212340
  67.1132420  22.6518830  30.0088420  71.3396250  21.5473880  20.4020330
  70.7109410  21.6519550  19.6878560  70.8448170  21.7670660  21.1914210
  65.7854390  33.2679470  17.8354310  65.8866370  33.0643460  16.9056290
  64.8856130  33.0137750  18.0402090  63.3080280  23.8259830  21.8178210
  62.5996430  24.2946170  22.2591820  63.5924760  23.1681840  22.4523400
  64.9336210  25.2456530  29.8170740  65.4321460  25.7202350  30.4822590
  65.0759160  24.3220050  30.0240770  67.3395710  20.5510490  23.2574000
  67.2163490  20.5696620  22.3083510  68.2880270  20.5989430  23.3772400
  64.4272500  35.7865790  22.5301980  64.6814000  35.7487180  21.6081350
  63.4784980  35.6599120  22.5230230  61.5115300  22.1344910  19.1928920
  62.3605830  22.5715060  19.1269110  61.1446570  22.4465170  20.0200980
  70.4325080  26.7057670  24.1060490  69.4915220  26.7207900  24.2808180
  70.7469150  25.9193630  24.5520790  60.4106720  28.3877270  17.6664450
  61.1769990  28.2758630  18.2289880  60.4881410  27.6915240  17.0141220
  59.1053480  25.8202340  18.3497340  59.1857070  24.8729850  18.4614740
  59.9973230  26.1509220  18.4558000  59.9068190  35.9697730  25.4531880
  60.6430670  35.4213190  25.7240450  60.2909110  36.8353740  25.3137870
  56.7913670  32.0371300  21.3273390  55.8653450  32.2792440  21.3178800
  57.2570100  32.8645560  21.2058140  58.9126470  35.1543800  34.6417460
  59.7139200  35.4755850  35.0552860  58.3978290  34.7939380  35.3637370
  63.0170500  35.1428040  17.2757450  63.8099110  35.4316870  16.8239240
  62.4974850  34.7120210  16.5969930  67.7491100  31.2623670  34.5892870
  67.1429260  31.2855270  33.8488620  67.4445210  30.5306710  35.1260120
  69.1791470  34.9903960  33.2002280  70.1313220  34.9061980  33.1502520
  69.0319690  35.6545670  33.8736070  56.6324280  27.6417260  33.5853510
  57.1363300  27.0624540  34.1569740  55.8931700  27.9257490  34.1229880
  63.5347900  30.3631450  17.1399800  63.4298540  29.7483800  17.8661180
  63.3672120  29.8397340  16.3562810  63.6862220  29.0488250  33.1189030
  62.9207890  29.6173250  33.0343700  63.8678180  28.7564460  32.2257260
  66.7750630  29.4251480  17.7441790  66.2260730  29.8720780  18.3884530
  67.3969890  28.9200730  18.2679460  70.8285570  30.7793580  33.6764050
  71.5695040  31.1169340  33.1731510  70.0658250  30.9485640  33.1233820
  58.6647360  25.7846850  34.4803580  58.7052700  25.4860720  35.3888810
  59.5192860  26.1854460  34.3211100  62.4425750  28.3842400  19.6407090
  62.8642170  28.2182270  20.4838480  62.5676590  27.5742630  19.1462230
  60.6053170  24.3638950  32.4478070  60.0749630  23.8729900  31.8201410
  61.2741240  24.7923150  31.9136000  64.9553390  27.4080010  16.8884190
  65.4759050  26.6929030  16.5225340  65.6021790  28.0465880  17.1884700
  69.5031230  28.8308410  32.2119260  69.9172250  28.9853490  33.0609680
  68.5682230  28.9563630  32.3745040  69.9753400  26.1704570  34.2158410
  70.5574170  25.4156890  34.1278890  70.1515170  26.7012010  33.4389890
  61.0925470  21.3301320  32.5275360  60.9982340  20.7122070  31.8026230
  60.5122860  22.0567610  32.3005270  63.8586910  19.8874560  29.5602750
  63.4104210  19.9098820  28.7148300  63.2252110  19.4893580  30.1573050
  64.2646460  28.7828890  30.1815190  64.6834570  29.6261620  30.0091430
  63.3455090  28.9200930  29.9521970  66.6010360  26.5145070  31.5653030
  66.7206570  25.9186210  32.3047870  67.4604360  26.5514760  31.1454330
  68.9398260  27.0682260  30.1415540  68.4133480  27.5924880  29.5380680
  69.2829600  27.7009650  30.7725270  61.3384650  24.4575630  16.5865250
  61.1373710  23.5942990  16.9478590  61.1676700  24.3708990  15.6486850
  62.1153880  35.0881900  31.2972920  61.5774970  35.8127960  30.9781620
  62.3687840  34.6112240  30.5070260  63.3679130  23.0566420  32.8228850
  63.9578820  22.7482270  33.5106670  62.5499370  22.5846170  32.9788750
  68.1872560  22.6732230  33.0561870  67.4988080  22.0113770  32.9911860
  68.9078580  22.2270500  33.5010330  68.8172960  19.2683860  19.1152130
  69.0975250  18.4251760  19.4711550  68.0438690  19.5006970  19.6290880
  60.1367450  21.5576250  16.5743130  60.4393350  21.5643680  15.6662280
  60.8762040  21.2074110  17.0710790  64.9716090  36.3233110  31.5559570
  64.8974790  37.2268250  31.8631940  64.0694930  36.0045010  31.5281640
  63.3552380  20.5010870  17.5599330  63.0074380  19.8234860  16.9801780
  63.5565150  20.0400380  18.3742720  65.5201420  35.4891620  19.1785930
  66.4152210  35.8276590  19.2004690  65.5519050  34.7671030  18.5510210
  59.1597580  30.8618670  17.4072930  59.5972450  31.4048340  18.0630510
  59.6445310  30.0365620  17.4169270  56.3743380  33.6507700  24.8593190
  56.7046390  32.7828760  24.6271830  56.8034380  33.8566220  25.6898150
  60.9705300  31.9816710  22.5195160  60.6700840  31.8581680  23.4199070
  60.8642790  31.1225300  22.1110890  56.8633590  34.5178290  27.5974820
  56.4264580  34.6979090  28.4298970  57.4311270  35.2752910  27.4556540
  56.6958020  27.0298520  23.9563700  56.0406860  26.7610160  23.3123400
  57.5335970  26.9203000  23.5065680  71.1847410  30.7447270  29.9828290
  70.3707250  31.1744430  30.2454080  71.5921610  31.3565680  29.3697340
  69.6448460  21.8239810  18.1782190  70.0633340  21.6370790  17.3378850
  69.3384520  20.9718860  18.4885120  57.7333950  27.4151090  28.4967040
  58.1006990  27.3278490  29.3763060  57.1644770  26.6517640  28.3973900
  57.2849950  24.3260180  32.4025460  56.3906000  24.2926940  32.7419170
  57.8247500  24.5246970  33.1676710  70.9725880  21.1091900  34.2877210
  71.8496060  21.1175300  34.6711210  70.9846720  20.3722740  33.6769560
  55.9096100  24.2397450  19.8989030  55.0060180  24.5027650  19.7240690
  56.3936720  24.5108620  19.1188990  58.4523310  23.2962990  17.8083410
  59.1615010  22.8746210  17.3230690  57.7363250  23.3638220  17.1766760
  58.0997470  19.3502320  16.8486060  58.8225600  19.8911260  17.1667280
  58.3721990  19.0765740  15.9727600  57.7889660  18.6008510  26.7508680
  58.4365850  18.0505890  26.3103840  58.2091500  18.8551660  27.5724490
  71.2423460  35.4965870  23.5096560  71.8382530  35.1750440  22.8330980
  71.5001610  35.0237690  24.3009830  57.5421660  18.7564180  29.4934000
  57.1936480  19.2128000  30.2592180  57.2109360  17.8621310  29.5756430
  59.1486030  31.9283780  33.6587190  59.1055660  31.5576690  34.5401650
  59.2797040  32.8661350  33.7989010  62.8492060  33.4843370  29.2596910
  62.6083420  33.7517930  28.3727430  63.7894700  33.6549100  29.3147770
  65.0546480  19.9476060  33.0153420  64.9935370  20.5397890  33.7648830
  65.9946860  19.8402020  32.8703680  67.6921040  19.6046120  32.6545710
  68.3061450  19.9225410  31.9926790  68.2370600  19.1194710  33.2741570
  58.2142300  18.2840380  32.7684770  58.7625290  18.1028430  32.0050880
  58.2797610  17.4934490  33.3041080  58.9874060  34.8746030  30.7784970
  58.3934380  34.7430730  31.5175010  58.9797900  34.0384170  30.3127070
  68.4329080  18.1678260  28.9815000  67.5588920  18.5013370  28.7787930
  68.3239830  17.6951440  29.8066870  69.3401060  20.3749130  30.3656720
  69.0114420  19.5600890  29.9858450  70.2883360  20.3318940  30.2422410
  71.7935670  36.1461170  27.3394290  71.3338640  36.8976980  26.9652310
  71.1648130  35.4267640  27.2809090  58.6186290  32.2404410  29.7293010
  57.8920350  31.6209700  29.6618960  58.6795440  32.6345020  28.8591090
  62.2231390  34.4549410  26.5142420  62.7396410  33.8436770  25.9890680
  62.8728770  34.9578190  27.0053430  64.9626890  35.3457900  27.3411400
  65.2504700  35.0912200  26.4644410  65.4750110  34.7935260  27.9316970
  66.1803900  19.0848100  27.9207910  65.3975690  19.5593600  28.2004670
  65.8866830  18.1802930  27.8121090  70.7324970  19.7871200  25.9657000
  71.1733060  19.7316300  25.1178600  70.4632560  20.7029210  26.0367180
  56.9016290  35.5578800  22.9389770  56.7338330  34.9249480  23.6371660
  56.0350800  35.7638200  22.5883960  57.5244310  19.3895580  20.4421630
  58.2823670  19.5024460  19.8685660  57.0621480  20.2264780  20.3965060
  64.0658120  21.5034850  23.4323940  63.2532630  21.1291740  23.0919820
  64.5699760  20.7479930  23.7345130  68.5683100  18.1677300  24.6707010
  69.1712470  18.7397510  25.1455530  67.8276090  18.7316740  24.4480910
  71.7117700  18.5698860  19.9447290  71.9068330  19.4682310  20.2114720
  70.9247570  18.3385940  20.4380240  58.5078990  34.2512030  20.3839910
  57.9826610  34.6320060  19.6801870  58.4323570  34.8762800  21.1049620
  59.8969460  19.9159630  18.9823600  60.4262220  19.1289430  18.8531550
  60.5297780  20.5950820  19.2159130  62.0907300  19.6534770  22.0368990
  61.4610040  18.9522080  22.2039120  61.5512440  20.4138900  21.8202150
  65.0299250  36.2674000  34.7079600  65.9566560  36.0318270  34.7515560
  65.0149680  37.0946000  34.2265630  62.2162860  18.9318750  34.4721480
  61.9347130  19.4352350  33.7082300  62.5982560  18.1340500  34.1063610
  61.1071960  36.1994410  19.2589160  61.8390780  35.9153690  18.7113050
  61.3665630  35.9607690  20.1488540  60.2686750  32.3159140  19.2635490
  59.6395630  32.7844240  19.8121320  60.3834580  31.4708360  19.6981680
  68.8178320  18.3472330  35.0501950  68.7043770  18.6666940  35.9453470
  69.6348060  18.7484840  34.7539230  67.7236470  26.3664800   5.4136690
  67.6430520  25.4519410   5.1428400  67.3100890  26.8631870   4.7076400
  65.8554510  28.1443820   7.2945960  65.0796610  27.6644260   7.5844530
  66.5067440  27.4649470   7.1202120  59.8720340  28.4563630   8.1721720
  59.0405220  28.2012340   8.5718230  60.4801320  28.5274400   8.9079640
  69.8761940  32.5504010   6.0745090  69.4143470  31.7791250   6.4032260
  70.6887490  32.5770080   6.5797540  59.8521600  32.4903720   8.3679740
  60.1549640  31.6001460   8.1889960  60.5965190  33.0473940   8.1401990
  56.2445300  26.0171170   7.8403810  56.8161410  25.2493370   7.8407450
  56.2446840  26.3159930   6.9310420  66.1025250  34.8362020   5.6949080
  65.4836690  35.2919520   5.1243520  66.9577030  34.9913480   5.2938780
  65.2963500  30.8201010   7.3016120  65.2271780  29.8790950   7.1405250
  66.0583360  30.9102420   7.8738690  57.4870170  21.4255530   9.6272740
  57.3073010  20.5281280   9.9075500  57.0850250  21.9727400  10.3019690
  66.3268670  23.6271390   7.5285050  66.7033490  22.7543270   7.4158720
  66.2288180  23.9630090   6.6375490  60.4573680  21.9997020   2.9902490
  60.5640430  22.9000750   3.2971250  59.5466040  21.9514990   2.6997140
  70.1092790  21.1221830   4.4613390  70.9302410  20.6318400   4.5038870
  70.1426870  21.7119490   5.2145230  58.1056840  23.9216030   8.2355080
  58.7866950  24.1854400   8.8542480  57.7904890  23.0816900   8.5693090
  62.2981410  24.9683390   7.3227670  62.8059630  25.4664360   7.9632690
  62.8294650  24.1918590   7.1467030  60.5817510  19.6081950  11.5891090
  60.5835950  20.1254340  10.7836990  59.7521820  19.1312130  11.5661020
  66.9688600  29.7201260   3.0880990  66.3505870  30.1850710   2.5243710
  67.4811850  30.4128740   3.5050500  61.8320360  29.2477130   9.7664590
  61.4989740  29.8746050  10.4085660  62.0087040  29.7739010   8.9866260
  70.3454270  23.0622210   7.2340930  69.6409840  23.3507100   7.8144040
  70.7066430  23.8722320   6.8740490  60.2632840  21.3191910   9.5961540
  60.6049650  22.1633960   9.3015410  59.3248650  21.4675650   9.7126880
  61.0439460  31.2157930  11.5813770  61.6613460  31.8909010  11.2998220
  60.1832580  31.6245910  11.4901270  63.9460730  18.8074180   5.9206130
  64.2535710  18.2521070   5.2041630  63.0161430  18.9418640   5.7379120
  69.4975790  34.5241470   8.2113590  69.5102950  34.1203760   7.3435850
  68.9451010  35.2988760   8.1075020  70.7921210  31.2457690   3.3003760
  70.6817540  30.3032020   3.4253180  70.7889460  31.6073330   4.1866520
  68.8961230  29.4271310   9.5396200  69.3130020  29.2131420   8.7049660
  69.6201050  29.6844100  10.1104820  66.3341490  26.8723010   2.6566250
  65.4070770  26.8060390   2.8854720  66.4866310  27.8103140   2.5421490
  70.3638780  28.4343310   3.1601500  69.7451200  28.0962860   2.5127800
  70.3463230  27.7903070   3.8680690  69.8065340  24.6127850  10.5767310
  69.3936520  25.4381560  10.8307300  69.0741290  24.0272890  10.3843670
  61.9398130  27.3987750   5.4385980  61.5355130  26.6865000   4.9431880
  62.0261250  27.0540990   6.3274020  62.4079830  31.0855310   7.6025190
  62.1108120  30.4800780   6.9232970  63.3579650  31.1232620   7.4914550
  60.6526750  24.1730960   9.2185020  61.2041340  24.2826300   8.4438270
  61.1670260  24.5468560   9.9340250  70.4965440  34.6587180  11.2648290
  70.0196000  35.4659370  11.0720900  69.8127230  34.0065510  11.4174500
  61.4998260  30.8237000  14.2532990  60.6026790  31.0476970  14.5006390
  61.5251130  30.9471940  13.3044390  60.3269480  27.6950320  12.8290360
  60.1877250  28.5673120  13.1977760  59.4450840  27.3523130  12.6838300
  66.6498860  32.6126190   4.1355490  67.0894770  33.3550520   3.7210880
  66.5885750  32.8552760   5.0594450  62.1249830  33.6372020  15.0375510
  62.0965260  34.0414970  14.1703940  61.9614800  32.7082380  14.8747110
  58.6402760  26.2932730   2.9392630  58.5200360  27.0194820   2.3273900
  58.3303650  25.5235640   2.4620540  56.2788130  29.4647870   8.7461270
  56.3568550  29.5996640   7.8016990  56.8929810  28.7563760   8.9389390
  57.5235760  31.1648060   5.1567450  57.1163840  31.3062650   4.3021050
  58.4148770  30.8808220   4.9538660  67.3414640  35.3139970  12.0634500
  67.8559310  35.2247980  12.8656930  66.4983720  35.6599670  12.3562410
  61.7957420  35.3793840   3.2690120  61.6199900  34.4629380   3.0557920
  60.9413160  35.7381130   3.5087920  68.5845100  34.7345580   4.1264990
  69.0402050  33.9534960   4.4403610  68.9237620  35.4452400   4.6706170
  56.3347650  30.5062040  11.2855730  56.4978690  30.0367400  10.4675100
  56.8000100  29.9985600  11.9504570  61.1066420  19.6367800   6.3216300
  60.6634570  20.4177340   5.9900820  61.6651410  19.9597690   7.0287240
  65.3936230  22.5036320  11.9251620  64.9315600  22.7119340  12.7371560
  64.9914340  21.6895670  11.6222290  70.3940740  23.7245270  13.0548280
  69.5434330  23.4251020  13.3757350  70.2342530  23.9687280  12.1432100
  67.4890450  25.2247020  15.1547070  67.8143860  24.3910770  14.8149300
  68.2770780  25.7475540  15.3025400  63.1442320  20.1815130   8.1805900
  63.4414650  21.0877960   8.0997920  63.6927880  19.6933910   7.5665470
  60.8980640  24.7601370   4.0497550  60.6721560  24.5438540   4.9544170
  60.1173170  25.1929830   3.7043520  68.1278400  24.7664740   2.6488200
  67.5287290  25.4900540   2.4651820  68.6758010  24.7041520   1.8664650
  63.3379850  25.6586950  14.7157820  63.2423450  24.7181680  14.5658220
  64.1811830  25.8802020  14.3205890  66.7343270  23.4028280   4.6791480
  67.1272840  23.7200480   3.8660170  67.0960120  22.5240160   4.7936000
  58.4690390  22.0700620  12.8691600  58.0753780  22.9175830  13.0764380
  57.7808790  21.4326990  13.0600240  65.0435440  22.1535590  15.9388340
  64.3533760  21.9607790  16.5734430  65.7867740  22.4370230  16.4712640
  55.7707440  19.9929080   6.9021680  55.4820490  20.5631940   7.6146660
  56.5153200  19.5133530   7.2652910  67.3198410  25.9934030   8.7742260
  66.5879530  26.5020840   9.1232360  66.9222750  25.1764010   8.4731040
  63.7575800  22.6688230   7.1794750  63.7611860  22.2278180   6.3299290
  64.6526920  22.9905560   7.2866570  59.6078180  22.5514720   6.1388960
  59.2678230  23.0289950   6.8956010  58.8455500  22.0979840   5.7790060
  67.7824320  21.4467710   8.1865200  67.7997060  21.8976360   9.0307050
  67.5339900  20.5473350   8.3998640  71.2095070  18.8599890  14.0251580
  71.5340840  18.1289550  14.5509560  71.2451580  18.5413530  13.1232570
  57.9086630  29.8813470  13.4451540  57.5241420  29.2407140  14.0434500
  58.2198820  30.5849590  14.0146270  64.0583770  26.7290010   8.9260160
  64.4253900  26.2548580   9.6721500  63.8688830  27.6031580   9.2668500
  56.9224260  21.4733700   5.0553630  56.6371180  21.1089370   5.8932250
  56.8603120  20.7414160   4.4416770  61.8483140  25.7698650  11.2444370
  61.5440210  26.6490630  11.4694730  62.8029600  25.8298440  11.2801810
  60.3764930  29.9759640   1.8411220  59.6027190  29.4357260   1.6809940
  61.1059560  29.4566250   1.5028980  71.1352910  28.9725000   7.6337610
  71.8552030  29.4680290   7.2433720  70.9334730  28.2942890   6.9891480
  66.5962850  20.3662960   1.7767000  65.7827460  19.8676130   1.7012310
  66.4024800  21.2061210   1.3603350  66.5171710  29.0434060  13.5206610
  66.4509020  28.1229730  13.2664200  65.8876850  29.1409500  14.2351250
  60.4202330  29.6440020   5.4790030  60.9381000  28.8408280   5.4246920
  59.9686350  29.5819160   6.3206860  57.9046870  26.6101390  12.3915730
  57.5461810  27.2755240  12.9789070  57.6101430  25.7784940  12.7628350
  61.1059990  27.0685630  15.2755280  60.8060130  27.2142810  14.3783100
  61.8771230  26.5090920  15.1828670  66.4488440  31.8654630  13.2710410
  66.4632980  30.9335590  13.0529320  65.7413540  31.9514390  13.9100180
  68.1899240  30.2322140   6.1162840  68.5423060  29.6350270   5.4564210
  67.3061570  29.9066370   6.2871090  64.2762520  30.9919830   3.5233250
  64.9633650  31.5389040   3.9040840  63.4894940  31.5360560   3.5582860
  63.5789730  27.9965860   3.1358610  64.0352510  28.8071110   3.3618800
  63.2277940  27.6789000   3.9677100  65.8822340  33.5072200  10.3650910
  66.5264560  33.7131580  11.0424330  66.2451780  32.7460600   9.9121760
  59.4801510  18.3403510   3.6081130  59.3516140  18.3321410   4.5566050
  58.6563530  18.6786600   3.2572140  67.1554420  31.5104550   9.0828360
  67.7976650  30.8097710   9.1960530  67.6803770  32.2902990   8.9025250
  68.9292040  32.3099450  12.2864420  69.2648280  32.8966140  12.9642340
  68.0092380  32.1792160  12.5162210  56.4795440  20.0994630  13.0687830
  55.7653960  20.2991550  13.6740440  56.8990480  19.3234200  13.4402630
  56.7668030  34.0874890  14.0554360  56.8759150  33.1469630  13.9149750
  56.1148590  34.3529640  13.4068090  64.7580620  32.3590780  15.4552480
  64.4377490  31.6400020  15.9998170  64.0838980  33.0345850  15.5288540
  67.9734220  22.5916940  10.8189280  68.3415040  21.7712150  11.1468850
  67.1132420  22.6518830  11.2344930  63.3080280  23.8259830   3.0434720
  62.5996430  24.2946170   3.4848330  63.5924760  23.1681840   3.6779910
  64.9336210  25.2456530  11.0427250  65.4321460  25.7202350  11.7079100
  65.0759160  24.3220050  11.2497280  67.3395710  20.5510490   4.4830510
  67.2163490  20.5696620   3.5340020  68.2880270  20.5989430   4.6028910
  64.4272500  35.7865790   3.7558490  64.6814000  35.7487180   2.8337860
  63.4784980  35.6599120   3.7486740  70.4325080  26.7057670   5.3317000
  69.4915220  26.7207900   5.5064690  70.7469150  25.9193630   5.7777300
  59.9068190  35.9697730   6.6788390  60.6430670  35.4213190   6.9496960
  60.2909110  36.8353740   6.5394380  56.7913670  32.0371300   2.5529900
  55.8653450  32.2792440   2.5435310  57.2570100  32.8645560   2.4314650
  58.9126470  35.1543800  15.8673970  59.7139200  35.4755850  16.2809370
  58.3978290  34.7939380  16.5893880  67.7491100  31.2623670  15.8149380
  67.1429260  31.2855270  15.0745130  67.4445210  30.5306710  16.3516630
  69.1791470  34.9903960  14.4258790  70.1313220  34.9061980  14.3759030
  69.0319690  35.6545670  15.0992580  56.6324280  27.6417260  14.8110020
  57.1363300  27.0624540  15.3826250  55.8931700  27.9257490  15.3486390
  63.6862220  29.0488250  14.3445540  62.9207890  29.6173250  14.2600210
  63.8678180  28.7564460  13.4513770  70.8285570  30.7793580  14.9020560
  71.5695040  31.1169340  14.3988020  70.0658250  30.9485640  14.3490330
  58.6647360  25.7846850  15.7060090  58.7052700  25.4860720  16.6145320
  59.5192860  26.1854460  15.5467610  60.6053170  24.3638950  13.6734580
  60.0749630  23.8729900  13.0457920  61.2741240  24.7923150  13.1392510
  69.5031230  28.8308410  13.4375770  69.9172250  28.9853490  14.2866190
  68.5682230  28.9563630  13.6001550  69.9753400  26.1704570  15.4414920
  70.5574170  25.4156890  15.3535400  70.1515170  26.7012010  14.6646400
  61.0925470  21.3301320  13.7531870  60.9982340  20.7122070  13.0282740
  60.5122860  22.0567610  13.5261780  63.8586910  19.8874560  10.7859260
  63.4104210  19.9098820   9.9404810  63.2252110  19.4893580  11.3829560
  64.2646460  28.7828890  11.4071700  64.6834570  29.6261620  11.2347940
  63.3455090  28.9200930  11.1778480  66.6010360  26.5145070  12.7909540
  66.7206570  25.9186210  13.5304380  67.4604360  26.5514760  12.3710840
  68.9398260  27.0682260  11.3672050  68.4133480  27.5924880  10.7637190
  69.2829600  27.7009650  11.9981780  62.1153880  35.0881900  12.5229430
  61.5774970  35.8127960  12.2038130  62.3687840  34.6112240  11.7326770
  63.3679130  23.0566420  14.0485360  63.9578820  22.7482270  14.7363180
  62.5499370  22.5846170  14.2045260  68.1872560  22.6732230  14.2818380
  67.4988080  22.0113770  14.2168370  68.9078580  22.2270500  14.7266840
  64.9716090  36.3233110  12.7816080  64.8974790  37.2268250  13.0888450
  64.0694930  36.0045010  12.7538150  56.3743380  33.6507700   6.0849700
  56.7046390  32.7828760   5.8528340  56.8034380  33.8566220   6.9154660
  60.9705300  31.9816710   3.7451670  60.6700840  31.8581680   4.6455580
  60.8642790  31.1225300   3.3367400  56.8633590  34.5178290   8.8231330
  56.4264580  34.6979090   9.6555480  57.4311270  35.2752910   8.6813050
  56.6958020  27.0298520   5.1820210  56.0406860  26.7610160   4.5379910
  57.5335970  26.9203000   4.7322190  71.1847410  30.7447270  11.2084800
  70.3707250  31.1744430  11.4710590  71.5921610  31.3565680  10.5953850
  57.7333950  27.4151090   9.7223550  58.1006990  27.3278490  10.6019570
  57.1644770  26.6517640   9.6230410  57.2849950  24.3260180  13.6281970
  56.3906000  24.2926940  13.9675680  57.8247500  24.5246970  14.3933220
  70.9725880  21.1091900  15.5133720  71.8496060  21.1175300  15.8967720
  70.9846720  20.3722740  14.9026070  57.7889660  18.6008510   7.9765190
  58.4365850  18.0505890   7.5360350  58.2091500  18.8551660   8.7981000
  71.2423460  35.4965870   4.7353070  71.8382530  35.1750440   4.0587490
  71.5001610  35.0237690   5.5266340  57.5421660  18.7564180  10.7190510
  57.1936480  19.2128000  11.4848690  57.2109360  17.8621310  10.8012940
  59.1486030  31.9283780  14.8843700  59.1055660  31.5576690  15.7658160
  59.2797040  32.8661350  15.0245520  62.8492060  33.4843370  10.4853420
  62.6083420  33.7517930   9.5983940  63.7894700  33.6549100  10.5404280
  65.0546480  19.9476060  14.2409930  64.9935370  20.5397890  14.9905340
  65.9946860  19.8402020  14.0960190  67.6921040  19.6046120  13.8802220
  68.3061450  19.9225410  13.2183300  68.2370600  19.1194710  14.4998080
  58.2142300  18.2840380  13.9941280  58.7625290  18.1028430  13.2307390
  58.2797610  17.4934490  14.5297590  58.9874060  34.8746030  12.0041480
  58.3934380  34.7430730  12.7431520  58.9797900  34.0384170  11.5383580
  68.4329080  18.1678260  10.2071510  67.5588920  18.5013370  10.0044440
  68.3239830  17.6951440  11.0323380  69.3401060  20.3749130  11.5913230
  69.0114420  19.5600890  11.2114960  70.2883360  20.3318940  11.4678920
  71.7935670  36.1461170   8.5650800  71.3338640  36.8976980   8.1908820
  71.1648130  35.4267640   8.5065600  58.6186290  32.2404410  10.9549520
  57.8920350  31.6209700  10.8875470  58.6795440  32.6345020  10.0847600
  62.2231390  34.4549410   7.7398930  62.7396410  33.8436770   7.2147190
  62.8728770  34.9578190   8.2309940  64.9626890  35.3457900   8.5667910
  65.2504700  35.0912200   7.6900920  65.4750110  34.7935260   9.1573480
  66.1803900  19.0848100   9.1464420  65.3975690  19.5593600   9.4261180
  65.8866830  18.1802930   9.0377600  70.7324970  19.7871200   7.1913510
  71.1733060  19.7316300   6.3435110  70.4632560  20.7029210   7.2623690
  56.9016290  35.5578800   4.1646280  56.7338330  34.9249480   4.8628170
  56.0350800  35.7638200   3.8140470  64.0658120  21.5034850   4.6580450
  63.2532630  21.1291740   4.3176330  64.5699760  20.7479930   4.9601640
  68.5683100  18.1677300   5.8963520  69.1712470  18.7397510   6.3712040
  67.8276090  18.7316740   5.6737420  62.0907300  19.6534770   3.2625500
  61.4610040  18.9522080   3.4295630  61.5512440  20.4138900   3.0458660
  65.0299250  36.2674000  15.9336110  65.9566560  36.0318270  15.9772070
  65.0149680  37.0946000  15.4522140  62.2162860  18.9318750  15.6977990
  61.9347130  19.4352350  14.9338810  62.5982560  18.1340500  15.3320120
  68.8178320  18.3472330  16.2758460  68.7043770  18.6666940  17.1709980
  69.6348060  18.7484840  15.9795740  67.7236470   7.5921310  61.7367160
  67.6430520   6.6775920  61.4658870  67.3100890   8.0888380  61.0306870
  65.8554510   9.3700330  63.6176430  65.0796610   8.8900770  63.9075000
  66.5067440   8.6905980  63.4432590  59.8720340   9.6820140  64.4952190
  59.0405220   9.4268850  64.8948700  60.4801320   9.7530910  65.2310110
  69.8761940  13.7760520  62.3975560  69.4143470  13.0047760  62.7262730
  70.6887490  13.8026590  62.9028010  59.8521600  13.7160230  64.6910210
  60.1549640  12.8257970  64.5120430  60.5965190  14.2730450  64.4632460
  58.2812290   4.6422030  58.2794580  57.3928990   4.9838000  58.1774460
  58.5653480   4.4422350  57.3875410  56.2445300   7.2427680  64.1634280
  56.8161410   6.4749880  64.1637920  56.2446840   7.5416440  63.2540890
  66.1025250  16.0618530  62.0179550  65.4836690  16.5176030  61.4473990
  66.9577030  16.2169990  61.6169250  65.2963500  12.0457520  63.6246590
  65.2271780  11.1047460  63.4635720  66.0583360  12.1358930  64.1969160
  57.4870170   2.6512040  65.9503210  57.3073010   1.7537790  66.2305970
  57.0850250   3.1983910  66.6250160  66.3268670   4.8527900  63.8515520
  66.7033490   3.9799780  63.7389190  66.2288180   5.1886600  62.9605960
  60.4573680   3.2253530  59.3132960  60.5640430   4.1257260  59.6201720
  59.5466040   3.1771500  59.0227610  70.1092790   2.3478340  60.7843860
  70.9302410   1.8574910  60.8269340  70.1426870   2.9376000  61.5375700
  58.1056840   5.1472540  64.5585550  58.7866950   5.4110910  65.1772950
  57.7904890   4.3073410  64.8923560  62.2981410   6.1939900  63.6458140
  62.8059630   6.6920870  64.2863160  62.8294650   5.4175100  63.4697500
  66.9688600  10.9457770  59.4111460  66.3505870  11.4107220  58.8474180
  67.4811850  11.6385250  59.8280970  61.8320360  10.4733640  66.0895060
  61.4989740  11.1002560  66.7316130  62.0087040  10.9995520  65.3096730
  70.3454270   4.2878720  63.5571400  69.6409840   4.5763610  64.1374510
  70.7066430   5.0978830  63.1970960  60.2632840   2.5448420  65.9192010
  60.6049650   3.3890470  65.6245880  59.3248650   2.6932160  66.0357350
  61.0439460  12.4414440  67.9044240  61.6613460  13.1165520  67.6228690
  60.1832580  12.8502420  67.8131740  56.3371800  11.6314300  56.7851090
  55.9599780  12.1201400  56.0535990  56.5944870  12.3039580  57.4157620
  69.4975790  15.7497980  64.5344060  69.5102950  15.3460270  63.6666320
  68.9451010  16.5245270  64.4305490  70.7921210  12.4714200  59.6234230
  70.6817540  11.5288530  59.7483650  70.7889460  12.8329840  60.5096990
  68.8961230  10.6527820  65.8626670  69.3130020  10.4387930  65.0280130
  69.6201050  10.9100610  66.4335290  66.3341490   8.0979520  58.9796720
  65.4070770   8.0316900  59.2085190  66.4866310   9.0359650  58.8651960
  66.3210570   4.3696520  55.9763880  65.3814240   4.5310480  56.0616340
  66.6393830   5.0882200  55.4299870  70.3638780   9.6599820  59.4831970
  69.7451200   9.3219370  58.8358270  70.3463230   9.0159580  60.1911160
  69.8065340   5.8384360  66.8997780  69.3936520   6.6638070  67.1537770
  69.0741290   5.2529400  66.7074140  61.9398130   8.6244260  61.7616450
  61.5355130   7.9121510  61.2662350  62.0261250   8.2797500  62.6504490
  62.4079830  12.3111820  63.9255660  62.1108120  11.7057290  63.2463440
  63.3579650  12.3489130  63.8145020  60.6526750   5.3987470  65.5415490
  61.2041340   5.5082810  64.7668740  61.1670260   5.7725070  66.2570720
  70.4965440  15.8843690  67.5878760  70.0196000  16.6915880  67.3951370
  69.8127230  15.2322020  67.7404970  68.5403480   8.8986630  56.4904720
  68.9796760   8.0609060  56.3442540  69.2531900   9.5316030  56.5768860
  66.6498860  13.8382700  60.4585960  67.0894770  14.5807030  60.0441350
  66.5885750  14.0809270  61.3824920  58.6402760   7.5189240  59.2623100
  58.5200360   8.2451330  58.6504370  58.3303650   6.7492150  58.7851010
  56.2788130  10.6904380  65.0691740  56.3568550  10.8253150  64.1247460
  56.8929810   9.9820270  65.2619860  57.5235760  12.3904570  61.4797920
  57.1163840  12.5319160  60.6251520  58.4148770  12.1064730  61.2769130
  69.3169040  16.8251820  57.8148970  69.1570180  16.5354760  58.7130800
  69.1515750  16.0491950  57.2794200  61.7957420  16.6050350  59.5920590
  61.6199900  15.6885890  59.3788390  60.9413160  16.9637640  59.8318390
  69.0195170  14.3339380  56.3746970  68.3260330  14.3316670  55.7149250
  69.7618030  13.9098700  55.9441140  68.5845100  15.9602090  60.4495460
  69.0402050  15.1791470  60.7634080  68.9237620  16.6708910  60.9936640
  56.3347650  11.7318550  67.6086200  56.4978690  11.2623910  66.7905570
  56.8000100  11.2242110  68.2735040  65.3936230   3.7292830  68.2482090
  64.9315600   3.9375850  69.0602030  64.9914340   2.9152180  67.9452760
  60.8980640   5.9857880  60.3728020  60.6721560   5.7695050  61.2774640
  60.1173170   6.4186340  60.0273990  68.1278400   5.9921250  58.9718670
  67.5287290   6.7157050  58.7882290  68.6758010   5.9298030  58.1895120
  66.7343270   4.6284790  61.0021950  67.1272840   4.9456990  60.1890640
  67.0960120   3.7496670  61.1166470  55.9577670   5.1605710  54.4354870
  55.8752340   6.1036470  54.5769860  55.6060730   5.0180620  53.5567220
  67.3198410   7.2190540  65.0972730  66.5879530   7.7277350  65.4462830
  66.9222750   6.4020520  64.7961510  63.7575800   3.8944740  63.5025220
  63.7611860   3.4534690  62.6529760  64.6526920   4.2162070  63.6097040
  59.6078180   3.7771230  62.4619430  59.2678230   4.2546460  63.2186480
  58.8455500   3.3236350  62.1020530  63.8195950   4.8956820  56.4931980
  63.9408770   4.8543300  57.4417800  63.4344460   5.7580970  56.3378710
  67.7824320   2.6724220  64.5095670  67.7997060   3.1232870  65.3537520
  67.5339900   1.7729860  64.7229110  62.8317450   7.2057960  55.8915280
  62.2634350   6.7576210  55.2651190  63.5406450   7.5650740  55.3580430
  64.0583770   7.9546520  65.2490630  64.4253900   7.4805090  65.9951970
  63.8688830   8.8288090  65.5898970  56.9224260   2.6990210  61.3784100
  56.6371180   2.3345880  62.2162720  56.8603120   1.9670670  60.7647240
  61.8483140   6.9955160  67.5674840  61.5440210   7.8747140  67.7925200
  62.8029600   7.0554950  67.6032280  60.3764930  11.2016150  58.1641690
  59.6027190  10.6613770  58.0040410  61.1059560  10.6822760  57.8259450
  71.1352910  10.1981510  63.9568080  71.8552030  10.6936800  63.5664190
  70.9334730   9.5199400  63.3121950  69.3111240   5.9639120  56.3959630
  70.1990860   6.2756350  56.2210970  69.2816330   5.0911370  56.0040210
  60.4202330  10.8696530  61.8020500  60.9381000  10.0664790  61.7477390
  59.9686350  10.8075670  62.6437330  65.3071830  12.1362810  57.0747800
  65.6487530  12.8805040  56.5791120  64.4784540  12.4493930  57.4372630
  68.1899240  11.4578650  62.4393310  68.5423060  10.8606780  61.7794680
  67.3061570  11.1322880  62.6101560  64.2762520  12.2176340  59.8463720
  64.9633650  12.7645550  60.2271310  63.4894940  12.7617070  59.8813330
  56.4154920   7.8349160  55.3380800  57.2849770   8.1173960  55.6216720
  55.9245240   8.6485030  55.2229610  63.5789730   9.2222370  59.4589080
  64.0352510  10.0327620  59.6849270  63.2277940   8.9045510  60.2907570
  65.8822340  14.7328710  66.6881380  66.5264560  14.9388090  67.3654800
  66.2451780  13.9717110  66.2352230  67.1554420  12.7361060  65.4058830
  67.7976650  12.0354220  65.5191000  67.6803770  13.5159500  65.2255720
  71.0010140  13.0209680  55.1297970  70.7747720  12.3040120  55.7222610
  70.6106340  12.7722120  54.2919720  56.7826170  17.0476540  55.9042430
  57.1423810  17.6465880  55.2499700  56.6418510  17.5936430  56.6777460
  70.5826390  10.9381620  56.7912130  70.2948090  11.3994310  57.5790010
  71.3778560  10.4779390  57.0596350  62.7994790  14.4307740  56.7216100
  62.7904890  15.1637430  56.1060610  61.8793150  14.1839320  56.8143060
  58.4001430   9.6522630  57.4662860  57.7929380  10.3921530  57.4758160
  58.8750780   9.7421990  56.6401060  67.9734220   3.8173450  67.1419750
  68.3415040   2.9968660  67.4699320  67.1132420   3.8775340  67.5575400
  71.3396250   2.7730390  57.9507310  70.7109410   2.8776060  57.2365540
  70.8448170   2.9927170  58.7401190  65.7854390  14.4935980  55.3841290
  65.8866370  14.2899970  54.4543270  64.8856130  14.2394260  55.5889070
  63.3080280   5.0516340  59.3665190  62.5996430   5.5202680  59.8078800
  63.5924760   4.3938350  60.0010380  64.9336210   6.4713040  67.3657720
  65.4321460   6.9458860  68.0309570  65.0759160   5.5476560  67.5727750
  67.3395710   1.7767000  60.8060980  67.2163490   1.7953130  59.8570490
  68.2880270   1.8245940  60.9259380  64.4272500  17.0122300  60.0788960
  64.6814000  16.9743690  59.1568330  63.4784980  16.8855630  60.0717210
  61.5115300   3.3601420  56.7415900  62.3605830   3.7971570  56.6756090
  61.1446570   3.6721680  57.5687960  70.4325080   7.9314180  61.6547470
  69.4915220   7.9464410  61.8295160  70.7469150   7.1450140  62.1007770
  60.4106720   9.6133780  55.2151430  61.1769990   9.5015140  55.7776860
  60.4881410   8.9171750  54.5628200  59.1053480   7.0458850  55.8984320
  59.1857070   6.0986360  56.0101720  59.9973230   7.3765730  56.0044980
  59.9068190  17.1954240  63.0018860  60.6430670  16.6469700  63.2727430
  60.2909110  18.0610250  62.8624850  56.7913670  13.2627810  58.8760370
  55.8653450  13.5048950  58.8665780  57.2570100  14.0902070  58.7545120
  63.0170500  16.3684550  54.8244430  63.8099110  16.6573380  54.3726220
  62.4974850  15.9376720  54.1456910  63.5347900  11.5887960  54.6886780
  63.4298540  10.9740310  55.4148160  63.3672120  11.0653850  53.9049790
  66.7750630  10.6507990  55.2928770  66.2260730  11.0977290  55.9371510
  67.3969890  10.1457240  55.8166440  62.4425750   9.6098910  57.1894070
  62.8642170   9.4438780  58.0325460  62.5676590   8.7999140  56.6949210
  64.9553390   8.6336520  54.4371170  65.4759050   7.9185540  54.0712320
  65.6021790   9.2722390  54.7371680  64.2646460  10.0085400  67.7302170
  64.6834570  10.8518130  67.5578410  63.3455090  10.1457440  67.5008950
  68.9398260   8.2938770  67.6902520  68.4133480   8.8181390  67.0867660
  69.2829600   8.9266160  68.3212250  61.3384650   5.6832140  54.1352230
  61.1373710   4.8199500  54.4965570  61.1676700   5.5965500  53.1973830
  62.1153880  16.3138410  68.8459900  61.5774970  17.0384470  68.5268600
  62.3687840  15.8368750  68.0557240  60.1367450   2.7832760  54.1230110
  60.4393350   2.7900190  53.2149260  60.8762040   2.4330620  54.6197770
  65.5201420  16.7148130  56.7272910  66.4152210  17.0533100  56.7491670
  65.5519050  15.9927540  56.0997190  59.1597580  12.0875180  54.9559910
  59.5972450  12.6304850  55.6117490  59.6445310  11.2622130  54.9656250
  56.3743380  14.8764210  62.4080170  56.7046390  14.0085270  62.1758810
  56.8034380  15.0822730  63.2385130  60.9705300  13.2073220  60.0682140
  60.6700840  13.0838190  60.9686050  60.8642790  12.3481810  59.6597870
  56.8633590  15.7434800  65.1461800  56.4264580  15.9235600  65.9785950
  57.4311270  16.5009420  65.0043520  56.6958020   8.2555030  61.5050680
  56.0406860   7.9866670  60.8610380  57.5335970   8.1459510  61.0552660
  71.1847410  11.9703780  67.5315270  70.3707250  12.4000940  67.7941060
  71.5921610  12.5822190  66.9184320  69.6448460   3.0496320  55.7269170
  70.0633340   2.8627300  54.8865830  69.3384520   2.1975370  56.0372100
  57.7333950   8.6407600  66.0454020  58.1006990   8.5535000  66.9250040
  57.1644770   7.8774150  65.9460880  55.9096100   5.4653960  57.4476010
  55.0060180   5.7284160  57.2727670  56.3936720   5.7365130  56.6675970
  58.4523310   4.5219500  55.3570390  59.1615010   4.1002720  54.8717670
  57.7363250   4.5894730  54.7253740  71.2423460  16.7222380  61.0583540
  71.8382530  16.4006950  60.3817960  71.5001610  16.2494200  61.8496810
  62.8492060  14.7099880  66.8083890  62.6083420  14.9774440  65.9214410
  63.7894700  14.8805610  66.8634750  58.9874060  16.1002540  68.3271950
  58.3934380  15.9687240  69.0661990  58.9797900  15.2640680  67.8614050
  71.7935670  17.3717680  64.8881270  71.3338640  18.1233490  64.5139290
  71.1648130  16.6524150  64.8296070  58.6186290  13.4660920  67.2779990
  57.8920350  12.8466210  67.2105940  58.6795440  13.8601530  66.4078070
  62.2231390  15.6805920  64.0629400  62.7396410  15.0693280  63.5377660
  62.8728770  16.1834700  64.5540410  64.9626890  16.5714410  64.8898380
  65.2504700  16.3168710  64.0131390  65.4750110  16.0191770  65.4803950
  56.9016290  16.7835310  60.4876750  56.7338330  16.1505990  61.1858640
  56.0350800  16.9894710  60.1370940  64.0658120   2.7291360  60.9810920
  63.2532630   2.3548250  60.6406800  64.5699760   1.9736440  61.2832110
  58.5078990  15.4768540  57.9326890  57.9826610  15.8576570  57.2288850
  58.4323570  16.1019310  58.6536600  61.1071960  17.4250920  56.8076140
  61.8390780  17.1410200  56.2600030  61.3665630  17.1864200  57.6975520
  60.2686750  13.5415650  56.8122470  59.6395630  14.0100750  57.3608300
  60.3834580  12.6964870  57.2468660  67.7236470   7.5921310  42.9623670
  67.6430520   6.6775920  42.6915380  67.3100890   8.0888380  42.2563380
  65.8554510   9.3700330  44.8432940  65.0796610   8.8900770  45.1331510
  66.5067440   8.6905980  44.6689100  59.8720340   9.6820140  45.7208700
  59.0405220   9.4268850  46.1205210  60.4801320   9.7530910  46.4566620
  69.8761940  13.7760520  43.6232070  69.4143470  13.0047760  43.9519240
  70.6887490  13.8026590  44.1284520  59.8521600  13.7160230  45.9166720
  60.1549640  12.8257970  45.7376940  60.5965190  14.2730450  45.6888970
  58.2812290   4.6422030  39.5051090  57.3928990   4.9838000  39.4030970
  58.5653480   4.4422350  38.6131920  56.2445300   7.2427680  45.3890790
  56.8161410   6.4749880  45.3894430  56.2446840   7.5416440  44.4797400
  66.1025250  16.0618530  43.2436060  65.4836690  16.5176030  42.6730500
  66.9577030  16.2169990  42.8425760  65.2963500  12.0457520  44.8503100
  65.2271780  11.1047460  44.6892230  66.0583360  12.1358930  45.4225670
  57.4870170   2.6512040  47.1759720  57.3073010   1.7537790  47.4562480
  57.0850250   3.1983910  47.8506670  66.3268670   4.8527900  45.0772030
  66.7033490   3.9799780  44.9645700  66.2288180   5.1886600  44.1862470
  60.4573680   3.2253530  40.5389470  60.5640430   4.1257260  40.8458230
  59.5466040   3.1771500  40.2484120  70.1092790   2.3478340  42.0100370
  70.9302410   1.8574910  42.0525850  70.1426870   2.9376000  42.7632210
  58.1056840   5.1472540  45.7842060  58.7866950   5.4110910  46.4029460
  57.7904890   4.3073410  46.1180070  62.2981410   6.1939900  44.8714650
  62.8059630   6.6920870  45.5119670  62.8294650   5.4175100  44.6954010
  66.9688600  10.9457770  40.6367970  66.3505870  11.4107220  40.0730690
  67.4811850  11.6385250  41.0537480  61.8320360  10.4733640  47.3151570
  61.4989740  11.1002560  47.9572640  62.0087040  10.9995520  46.5353240
  70.3454270   4.2878720  44.7827910  69.6409840   4.5763610  45.3631020
  70.7066430   5.0978830  44.4227470  60.2632840   2.5448420  47.1448520
  60.6049650   3.3890470  46.8502390  59.3248650   2.6932160  47.2613860
  61.0439460  12.4414440  49.1300750  61.6613460  13.1165520  48.8485200
  60.1832580  12.8502420  49.0388250  56.3371800  11.6314300  38.0107600
  55.9599780  12.1201400  37.2792500  56.5944870  12.3039580  38.6414130
  69.4975790  15.7497980  45.7600570  69.5102950  15.3460270  44.8922830
  68.9451010  16.5245270  45.6562000  70.7921210  12.4714200  40.8490740
  70.6817540  11.5288530  40.9740160  70.7889460  12.8329840  41.7353500
  68.8961230  10.6527820  47.0883180  69.3130020  10.4387930  46.2536640
  69.6201050  10.9100610  47.6591800  66.3341490   8.0979520  40.2053230
  65.4070770   8.0316900  40.4341700  66.4866310   9.0359650  40.0908470
  66.3210570   4.3696520  37.2020390  65.3814240   4.5310480  37.2872850
  66.6393830   5.0882200  36.6556380  70.3638780   9.6599820  40.7088480
  69.7451200   9.3219370  40.0614780  70.3463230   9.0159580  41.4167670
  69.8065340   5.8384360  48.1254290  69.3936520   6.6638070  48.3794280
  69.0741290   5.2529400  47.9330650  61.9398130   8.6244260  42.9872960
  61.5355130   7.9121510  42.4918860  62.0261250   8.2797500  43.8761000
  62.4079830  12.3111820  45.1512170  62.1108120  11.7057290  44.4719950
  63.3579650  12.3489130  45.0401530  60.6526750   5.3987470  46.7672000
  61.2041340   5.5082810  45.9925250  61.1670260   5.7725070  47.4827230
  70.4965440  15.8843690  48.8135270  70.0196000  16.6915880  48.6207880
  69.8127230  15.2322020  48.9661480  61.4998260  12.0493510  51.8019970
  60.6026790  12.2733480  52.0493370  61.5251130  12.1728450  50.8531370
  68.5403480   8.8986630  37.7161230  68.9796760   8.0609060  37.5699050
  69.2531900   9.5316030  37.8025370  60.3269480   8.9206830  50.3777340
  60.1877250   9.7929630  50.7464740  59.4450840   8.5779640  50.2325280
  66.6498860  13.8382700  41.6842470  67.0894770  14.5807030  41.2697860
  66.5885750  14.0809270  42.6081430  62.1249830  14.8628530  52.5862490
  62.0965260  15.2671480  51.7190920  61.9614800  13.9338890  52.4234090
  58.6402760   7.5189240  40.4879610  58.5200360   8.2451330  39.8760880
  58.3303650   6.7492150  40.0107520  56.2788130  10.6904380  46.2948250
  56.3568550  10.8253150  45.3503970  56.8929810   9.9820270  46.4876370
  57.5235760  12.3904570  42.7054430  57.1163840  12.5319160  41.8508030
  58.4148770  12.1064730  42.5025640  67.3414640  16.5396480  49.6121480
  67.8559310  16.4504490  50.4143910  66.4983720  16.8856180  49.9049390
  69.3169040  16.8251820  39.0405480  69.1570180  16.5354760  39.9387310
  69.1515750  16.0491950  38.5050710  61.7957420  16.6050350  40.8177100
  61.6199900  15.6885890  40.6044900  60.9413160  16.9637640  41.0574900
  69.0195170  14.3339380  37.6003480  68.3260330  14.3316670  36.9405760
  69.7618030  13.9098700  37.1697650  68.5845100  15.9602090  41.6751970
  69.0402050  15.1791470  41.9890590  68.9237620  16.6708910  42.2193150
  56.3347650  11.7318550  48.8342710  56.4978690  11.2623910  48.0162080
  56.8000100  11.2242110  49.4991550  65.3936230   3.7292830  49.4738600
  64.9315600   3.9375850  50.2858540  64.9914340   2.9152180  49.1709270
  70.3940740   4.9501780  50.6035260  69.5434330   4.6507530  50.9244330
  70.2342530   5.1943790  49.6919080  67.4890450   6.4503530  52.7034050
  67.8143860   5.6167280  52.3636280  68.2770780   6.9732050  52.8512380
  60.8980640   5.9857880  41.5984530  60.6721560   5.7695050  42.5031150
  60.1173170   6.4186340  41.2530500  68.1278400   5.9921250  40.1975180
  67.5287290   6.7157050  40.0138800  68.6758010   5.9298030  39.4151630
  63.3379850   6.8843460  52.2644800  63.2423450   5.9438190  52.1145200
  64.1811830   7.1058530  51.8692870  66.7343270   4.6284790  42.2278460
  67.1272840   4.9456990  41.4147150  67.0960120   3.7496670  42.3422980
  58.4690390   3.2957130  50.4178580  58.0753780   4.1432340  50.6251360
  57.7808790   2.6583500  50.6087220  65.0435440   3.3792100  53.4875320
  64.3533760   3.1864300  54.1221410  65.7867740   3.6626740  54.0199620
  55.9577670   5.1605710  35.6611380  55.8752340   6.1036470  35.8026370
  55.6060730   5.0180620  34.7823730  67.3198410   7.2190540  46.3229240
  66.5879530   7.7277350  46.6719340  66.9222750   6.4020520  46.0218020
  63.7575800   3.8944740  44.7281730  63.7611860   3.4534690  43.8786270
  64.6526920   4.2162070  44.8353550  59.6078180   3.7771230  43.6875940
  59.2678230   4.2546460  44.4442990  58.8455500   3.3236350  43.3277040
  63.8195950   4.8956820  37.7188490  63.9408770   4.8543300  38.6674310
  63.4344460   5.7580970  37.5635220  67.7824320   2.6724220  45.7352180
  67.7997060   3.1232870  46.5794030  67.5339900   1.7729860  45.9485620
  62.8317450   7.2057960  37.1171790  62.2634350   6.7576210  36.4907700
  63.5406450   7.5650740  36.5836940  57.9086630  11.1069980  50.9938520
  57.5241420  10.4663650  51.5921480  58.2198820  11.8106100  51.5633250
  64.0583770   7.9546520  46.4747140  64.4253900   7.4805090  47.2208480
  63.8688830   8.8288090  46.8155480  56.9224260   2.6990210  42.6040610
  56.6371180   2.3345880  43.4419230  56.8603120   1.9670670  41.9903750
  61.8483140   6.9955160  48.7931350  61.5440210   7.8747140  49.0181710
  62.8029600   7.0554950  48.8288790  60.3764930  11.2016150  39.3898200
  59.6027190  10.6613770  39.2296920  61.1059560  10.6822760  39.0515960
  71.1352910  10.1981510  45.1824590  71.8552030  10.6936800  44.7920700
  70.9334730   9.5199400  44.5378460  66.5171710  10.2690570  51.0693590
  66.4509020   9.3486240  50.8151180  65.8876850  10.3666010  51.7838230
  69.3111240   5.9639120  37.6216140  70.1990860   6.2756350  37.4467480
  69.2816330   5.0911370  37.2296720  60.4202330  10.8696530  43.0277010
  60.9381000  10.0664790  42.9733900  59.9686350  10.8075670  43.8693840
  65.3071830  12.1362810  38.3004310  65.6487530  12.8805040  37.8047630
  64.4784540  12.4493930  38.6629140  57.9046870   7.8357900  49.9402710
  57.5461810   8.5011750  50.5276050  57.6101430   7.0041450  50.3115330
  61.1059990   8.2942140  52.8242260  60.8060130   8.4399320  51.9270080
  61.8771230   7.7347430  52.7315650  66.4488440  13.0911140  50.8197390
  66.4632980  12.1592100  50.6016300  65.7413540  13.1770900  51.4587160
  68.1899240  11.4578650  43.6649820  68.5423060  10.8606780  43.0051190
  67.3061570  11.1322880  43.8358070  64.2762520  12.2176340  41.0720230
  64.9633650  12.7645550  41.4527820  63.4894940  12.7617070  41.1069840
  56.4154920   7.8349160  36.5637310  57.2849770   8.1173960  36.8473230
  55.9245240   8.6485030  36.4486120  63.5789730   9.2222370  40.6845590
  64.0352510  10.0327620  40.9105780  63.2277940   8.9045510  41.5164080
  65.8822340  14.7328710  47.9137890  66.5264560  14.9388090  48.5911310
  66.2451780  13.9717110  47.4608740  67.1554420  12.7361060  46.6315340
  67.7976650  12.0354220  46.7447510  67.6803770  13.5159500  46.4512230
  71.0010140  13.0209680  36.3554480  70.7747720  12.3040120  36.9479120
  70.6106340  12.7722120  35.5176230  68.9292040  13.5355960  49.8351400
  69.2648280  14.1222650  50.5129320  68.0092380  13.4048670  50.0649190
  56.7826170  17.0476540  37.1298940  57.1423810  17.6465880  36.4756210
  56.6418510  17.5936430  37.9033970  70.5826390  10.9381620  38.0168640
  70.2948090  11.3994310  38.8046520  71.3778560  10.4779390  38.2852860
  56.7668030  15.3131400  51.6041340  56.8759150  14.3726140  51.4636730
  56.1148590  15.5786150  50.9555070  64.7580620  13.5847290  53.0039460
  64.4377490  12.8656530  53.5485150  64.0838980  14.2602360  53.0775520
  62.7994790  14.4307740  37.9472610  62.7904890  15.1637430  37.3317120
  61.8793150  14.1839320  38.0399570  58.4001430   9.6522630  38.6919370
  57.7929380  10.3921530  38.7014670  58.8750780   9.7421990  37.8657570
  67.9734220   3.8173450  48.3676260  68.3415040   2.9968660  48.6955830
  67.1132420   3.8775340  48.7831910  71.3396250   2.7730390  39.1763820
  70.7109410   2.8776060  38.4622050  70.8448170   2.9927170  39.9657700
  65.7854390  14.4935980  36.6097800  65.8866370  14.2899970  35.6799780
  64.8856130  14.2394260  36.8145580  63.3080280   5.0516340  40.5921700
  62.5996430   5.5202680  41.0335310  63.5924760   4.3938350  41.2266890
  64.9336210   6.4713040  48.5914230  65.4321460   6.9458860  49.2566080
  65.0759160   5.5476560  48.7984260  67.3395710   1.7767000  42.0317490
  67.2163490   1.7953130  41.0827000  68.2880270   1.8245940  42.1515890
  64.4272500  17.0122300  41.3045470  64.6814000  16.9743690  40.3824840
  63.4784980  16.8855630  41.2973720  61.5115300   3.3601420  37.9672410
  62.3605830   3.7971570  37.9012600  61.1446570   3.6721680  38.7944470
  70.4325080   7.9314180  42.8803980  69.4915220   7.9464410  43.0551670
  70.7469150   7.1450140  43.3264280  60.4106720   9.6133780  36.4407940
  61.1769990   9.5015140  37.0033370  60.4881410   8.9171750  35.7884710
  59.1053480   7.0458850  37.1240830  59.1857070   6.0986360  37.2358230
  59.9973230   7.3765730  37.2301490  59.9068190  17.1954240  44.2275370
  60.6430670  16.6469700  44.4983940  60.2909110  18.0610250  44.0881360
  56.7913670  13.2627810  40.1016880  55.8653450  13.5048950  40.0922290
  57.2570100  14.0902070  39.9801630  58.9126470  16.3800310  53.4160950
  59.7139200  16.7012360  53.8296350  58.3978290  16.0195890  54.1380860
  63.0170500  16.3684550  36.0500940  63.8099110  16.6573380  35.5982730
  62.4974850  15.9376720  35.3713420  67.7491100  12.4880180  53.3636360
  67.1429260  12.5111780  52.6232110  67.4445210  11.7563220  53.9003610
  69.1791470  16.2160470  51.9745770  70.1313220  16.1318490  51.9246010
  69.0319690  16.8802180  52.6479560  56.6324280   8.8673770  52.3597000
  57.1363300   8.2881050  52.9313230  55.8931700   9.1514000  52.8973370
  63.5347900  11.5887960  35.9143290  63.4298540  10.9740310  36.6404670
  63.3672120  11.0653850  35.1306300  63.6862220  10.2744760  51.8932520
  62.9207890  10.8429760  51.8087190  63.8678180   9.9820970  51.0000750
  66.7750630  10.6507990  36.5185280  66.2260730  11.0977290  37.1628020
  67.3969890  10.1457240  37.0422950  70.8285570  12.0050090  52.4507540
  71.5695040  12.3425850  51.9475000  70.0658250  12.1742150  51.8977310
  58.6647360   7.0103360  53.2547070  58.7052700   6.7117230  54.1632300
  59.5192860   7.4110970  53.0954590  62.4425750   9.6098910  38.4150580
  62.8642170   9.4438780  39.2581970  62.5676590   8.7999140  37.9205720
  60.6053170   5.5895460  51.2221560  60.0749630   5.0986410  50.5944900
  61.2741240   6.0179660  50.6879490  64.9553390   8.6336520  35.6627680
  65.4759050   7.9185540  35.2968830  65.6021790   9.2722390  35.9628190
  69.5031230  10.0564920  50.9862750  69.9172250  10.2110000  51.8353170
  68.5682230  10.1820140  51.1488530  69.9753400   7.3961080  52.9901900
  70.5574170   6.6413400  52.9022380  70.1515170   7.9268520  52.2133380
  61.0925470   2.5557830  51.3018850  60.9982340   1.9378580  50.5769720
  60.5122860   3.2824120  51.0748760  64.2646460  10.0085400  48.9558680
  64.6834570  10.8518130  48.7834920  63.3455090  10.1457440  48.7265460
  66.6010360   7.7401580  50.3396520  66.7206570   7.1442720  51.0791360
  67.4604360   7.7771270  49.9197820  68.9398260   8.2938770  48.9159030
  68.4133480   8.8181390  48.3124170  69.2829600   8.9266160  49.5468760
  61.3384650   5.6832140  35.3608740  61.1373710   4.8199500  35.7222080
  61.1676700   5.5965500  34.4230340  62.1153880  16.3138410  50.0716410
  61.5774970  17.0384470  49.7525110  62.3687840  15.8368750  49.2813750
  63.3679130   4.2822930  51.5972340  63.9578820   3.9738780  52.2850160
  62.5499370   3.8102680  51.7532240  68.1872560   3.8988740  51.8305360
  67.4988080   3.2370280  51.7655350  68.9078580   3.4527010  52.2753820
  60.1367450   2.7832760  35.3486620  60.4393350   2.7900190  34.4405770
  60.8762040   2.4330620  35.8454280  64.9716090  17.5489620  50.3303060
  64.8974790  18.4524760  50.6375430  64.0694930  17.2301520  50.3025130
  65.5201420  16.7148130  37.9529420  66.4152210  17.0533100  37.9748180
  65.5519050  15.9927540  37.3253700  59.1597580  12.0875180  36.1816420
  59.5972450  12.6304850  36.8374000  59.6445310  11.2622130  36.1912760
  56.3743380  14.8764210  43.6336680  56.7046390  14.0085270  43.4015320
  56.8034380  15.0822730  44.4641640  60.9705300  13.2073220  41.2938650
  60.6700840  13.0838190  42.1942560  60.8642790  12.3481810  40.8854380
  56.8633590  15.7434800  46.3718310  56.4264580  15.9235600  47.2042460
  57.4311270  16.5009420  46.2300030  56.6958020   8.2555030  42.7307190
  56.0406860   7.9866670  42.0866890  57.5335970   8.1459510  42.2809170
  71.1847410  11.9703780  48.7571780  70.3707250  12.4000940  49.0197570
  71.5921610  12.5822190  48.1440830  69.6448460   3.0496320  36.9525680
  70.0633340   2.8627300  36.1122340  69.3384520   2.1975370  37.2628610
  57.7333950   8.6407600  47.2710530  58.1006990   8.5535000  48.1506550
  57.1644770   7.8774150  47.1717390  57.2849950   5.5516690  51.1768950
  56.3906000   5.5183450  51.5162660  57.8247500   5.7503480  51.9420200
  70.9725880   2.3348410  53.0620700  71.8496060   2.3431810  53.4454700
  70.9846720   1.5979250  52.4513050  55.9096100   5.4653960  38.6732520
  55.0060180   5.7284160  38.4984180  56.3936720   5.7365130  37.8932480
  58.4523310   4.5219500  36.5826900  59.1615010   4.1002720  36.0974180
  57.7363250   4.5894730  35.9510250  71.2423460  16.7222380  42.2840050
  71.8382530  16.4006950  41.6074470  71.5001610  16.2494200  43.0753320
  59.1486030  13.1540290  52.4330680  59.1055660  12.7833200  53.3145140
  59.2797040  14.0917860  52.5732500  62.8492060  14.7099880  48.0340400
  62.6083420  14.9774440  47.1470920  63.7894700  14.8805610  48.0891260
  58.9874060  16.1002540  49.5528460  58.3934380  15.9687240  50.2918500
  58.9797900  15.2640680  49.0870560  71.7935670  17.3717680  46.1137780
  71.3338640  18.1233490  45.7395800  71.1648130  16.6524150  46.0552580
  58.6186290  13.4660920  48.5036500  57.8920350  12.8466210  48.4362450
  58.6795440  13.8601530  47.6334580  62.2231390  15.6805920  45.2885910
  62.7396410  15.0693280  44.7634170  62.8728770  16.1834700  45.7796920
  64.9626890  16.5714410  46.1154890  65.2504700  16.3168710  45.2387900
  65.4750110  16.0191770  46.7060460  56.9016290  16.7835310  41.7133260
  56.7338330  16.1505990  42.4115150  56.0350800  16.9894710  41.3627450
  64.0658120   2.7291360  42.2067430  63.2532630   2.3548250  41.8663310
  64.5699760   1.9736440  42.5088620  58.5078990  15.4768540  39.1583400
  57.9826610  15.8576570  38.4545360  58.4323570  16.1019310  39.8793110
  65.0299250  17.4930510  53.4823090  65.9566560  17.2574780  53.5259050
  65.0149680  18.3202510  53.0009120  61.1071960  17.4250920  38.0332650
  61.8390780  17.1410200  37.4856540  61.3665630  17.1864200  38.9232030
  60.2686750  13.5415650  38.0378980  59.6395630  14.0100750  38.5864810
  60.3834580  12.6964870  38.4725170  67.7236470   7.5921310  24.1880180
  67.6430520   6.6775920  23.9171890  67.3100890   8.0888380  23.4819890
  65.8554510   9.3700330  26.0689450  65.0796610   8.8900770  26.3588020
  66.5067440   8.6905980  25.8945610  59.8720340   9.6820140  26.9465210
  59.0405220   9.4268850  27.3461720  60.4801320   9.7530910  27.6823130
  69.8761940  13.7760520  24.8488580  69.4143470  13.0047760  25.1775750
  70.6887490  13.8026590  25.3541030  59.8521600  13.7160230  27.1423230
  60.1549640  12.8257970  26.9633450  60.5965190  14.2730450  26.9145480
  58.2812290   4.6422030  20.7307600  57.3928990   4.9838000  20.6287480
  58.5653480   4.4422350  19.8388430  56.2445300   7.2427680  26.6147300
  56.8161410   6.4749880  26.6150940  56.2446840   7.5416440  25.7053910
  66.1025250  16.0618530  24.4692570  65.4836690  16.5176030  23.8987010
  66.9577030  16.2169990  24.0682270  65.2963500  12.0457520  26.0759610
  65.2271780  11.1047460  25.9148740  66.0583360  12.1358930  26.6482180
  57.4870170   2.6512040  28.4016230  57.3073010   1.7537790  28.6818990
  57.0850250   3.1983910  29.0763180  66.3268670   4.8527900  26.3028540
  66.7033490   3.9799780  26.1902210  66.2288180   5.1886600  25.4118980
  60.4573680   3.2253530  21.7645980  60.5640430   4.1257260  22.0714740
  59.5466040   3.1771500  21.4740630  70.1092790   2.3478340  23.2356880
  70.9302410   1.8574910  23.2782360  70.1426870   2.9376000  23.9888720
  58.1056840   5.1472540  27.0098570  58.7866950   5.4110910  27.6285970
  57.7904890   4.3073410  27.3436580  62.2981410   6.1939900  26.0971160
  62.8059630   6.6920870  26.7376180  62.8294650   5.4175100  25.9210520
  66.9688600  10.9457770  21.8624480  66.3505870  11.4107220  21.2987200
  67.4811850  11.6385250  22.2793990  61.8320360  10.4733640  28.5408080
  61.4989740  11.1002560  29.1829150  62.0087040  10.9995520  27.7609750
  70.3454270   4.2878720  26.0084420  69.6409840   4.5763610  26.5887530
  70.7066430   5.0978830  25.6483980  60.2632840   2.5448420  28.3705030
  60.6049650   3.3890470  28.0758900  59.3248650   2.6932160  28.4870370
  61.0439460  12.4414440  30.3557260  61.6613460  13.1165520  30.0741710
  60.1832580  12.8502420  30.2644760  56.3371800  11.6314300  19.2364110
  55.9599780  12.1201400  18.5049010  56.5944870  12.3039580  19.8670640
  69.4975790  15.7497980  26.9857080  69.5102950  15.3460270  26.1179340
  68.9451010  16.5245270  26.8818510  70.7921210  12.4714200  22.0747250
  70.6817540  11.5288530  22.1996670  70.7889460  12.8329840  22.9610010
  68.8961230  10.6527820  28.3139690  69.3130020  10.4387930  27.4793150
  69.6201050  10.9100610  28.8848310  66.3341490   8.0979520  21.4309740
  65.4070770   8.0316900  21.6598210  66.4866310   9.0359650  21.3164980
  66.3210570   4.3696520  18.4276900  65.3814240   4.5310480  18.5129360
  66.6393830   5.0882200  17.8812890  70.3638780   9.6599820  21.9344990
  69.7451200   9.3219370  21.2871290  70.3463230   9.0159580  22.6424180
  69.8065340   5.8384360  29.3510800  69.3936520   6.6638070  29.6050790
  69.0741290   5.2529400  29.1587160  61.9398130   8.6244260  24.2129470
  61.5355130   7.9121510  23.7175370  62.0261250   8.2797500  25.1017510
  62.4079830  12.3111820  26.3768680  62.1108120  11.7057290  25.6976460
  63.3579650  12.3489130  26.2658040  60.6526750   5.3987470  27.9928510
  61.2041340   5.5082810  27.2181760  61.1670260   5.7725070  28.7083740
  70.4965440  15.8843690  30.0391780  70.0196000  16.6915880  29.8464390
  69.8127230  15.2322020  30.1917990  61.4998260  12.0493510  33.0276480
  60.6026790  12.2733480  33.2749880  61.5251130  12.1728450  32.0787880
  68.5403480   8.8986630  18.9417740  68.9796760   8.0609060  18.7955560
  69.2531900   9.5316030  19.0281880  60.3269480   8.9206830  31.6033850
  60.1877250   9.7929630  31.9721250  59.4450840   8.5779640  31.4581790
  66.6498860  13.8382700  22.9098980  67.0894770  14.5807030  22.4954370
  66.5885750  14.0809270  23.8337940  62.1249830  14.8628530  33.8119000
  62.0965260  15.2671480  32.9447430  61.9614800  13.9338890  33.6490600
  58.6402760   7.5189240  21.7136120  58.5200360   8.2451330  21.1017390
  58.3303650   6.7492150  21.2364030  56.2788130  10.6904380  27.5204760
  56.3568550  10.8253150  26.5760480  56.8929810   9.9820270  27.7132880
  57.5235760  12.3904570  23.9310940  57.1163840  12.5319160  23.0764540
  58.4148770  12.1064730  23.7282150  67.3414640  16.5396480  30.8377990
  67.8559310  16.4504490  31.6400420  66.4983720  16.8856180  31.1305900
  69.3169040  16.8251820  20.2661990  69.1570180  16.5354760  21.1643820
  69.1515750  16.0491950  19.7307220  61.7957420  16.6050350  22.0433610
  61.6199900  15.6885890  21.8301410  60.9413160  16.9637640  22.2831410
  69.0195170  14.3339380  18.8259990  68.3260330  14.3316670  18.1662270
  69.7618030  13.9098700  18.3954160  68.5845100  15.9602090  22.9008480
  69.0402050  15.1791470  23.2147100  68.9237620  16.6708910  23.4449660
  56.3347650  11.7318550  30.0599220  56.4978690  11.2623910  29.2418590
  56.8000100  11.2242110  30.7248060  65.3936230   3.7292830  30.6995110
  64.9315600   3.9375850  31.5115050  64.9914340   2.9152180  30.3965780
  70.3940740   4.9501780  31.8291770  69.5434330   4.6507530  32.1500840
  70.2342530   5.1943790  30.9175590  67.4890450   6.4503530  33.9290560
  67.8143860   5.6167280  33.5892790  68.2770780   6.9732050  34.0768890
  60.8980640   5.9857880  22.8241040  60.6721560   5.7695050  23.7287660
  60.1173170   6.4186340  22.4787010  68.1278400   5.9921250  21.4231690
  67.5287290   6.7157050  21.2395310  68.6758010   5.9298030  20.6408140
  63.3379850   6.8843460  33.4901310  63.2423450   5.9438190  33.3401710
  64.1811830   7.1058530  33.0949380  66.7343270   4.6284790  23.4534970
  67.1272840   4.9456990  22.6403660  67.0960120   3.7496670  23.5679490
  58.4690390   3.2957130  31.6435090  58.0753780   4.1432340  31.8507870
  57.7808790   2.6583500  31.8343730  65.0435440   3.3792100  34.7131830
  64.3533760   3.1864300  35.3477920  65.7867740   3.6626740  35.2456130
  55.9577670   5.1605710  16.8867890  55.8752340   6.1036470  17.0282880
  55.6060730   5.0180620  16.0080240  67.3198410   7.2190540  27.5485750
  66.5879530   7.7277350  27.8975850  66.9222750   6.4020520  27.2474530
  63.7575800   3.8944740  25.9538240  63.7611860   3.4534690  25.1042780
  64.6526920   4.2162070  26.0610060  59.6078180   3.7771230  24.9132450
  59.2678230   4.2546460  25.6699500  58.8455500   3.3236350  24.5533550
  63.8195950   4.8956820  18.9445000  63.9408770   4.8543300  19.8930820
  63.4344460   5.7580970  18.7891730  67.7824320   2.6724220  26.9608690
  67.7997060   3.1232870  27.8050540  67.5339900   1.7729860  27.1742130
  62.8317450   7.2057960  18.3428300  62.2634350   6.7576210  17.7164210
  63.5406450   7.5650740  17.8093450  57.9086630  11.1069980  32.2195030
  57.5241420  10.4663650  32.8177990  58.2198820  11.8106100  32.7889760
  64.0583770   7.9546520  27.7003650  64.4253900   7.4805090  28.4464990
  63.8688830   8.8288090  28.0411990  56.9224260   2.6990210  23.8297120
  56.6371180   2.3345880  24.6675740  56.8603120   1.9670670  23.2160260
  61.8483140   6.9955160  30.0187860  61.5440210   7.8747140  30.2438220
  62.8029600   7.0554950  30.0545300  60.3764930  11.2016150  20.6154710
  59.6027190  10.6613770  20.4553430  61.1059560  10.6822760  20.2772470
  71.1352910  10.1981510  26.4081100  71.8552030  10.6936800  26.0177210
  70.9334730   9.5199400  25.7634970  66.5171710  10.2690570  32.2950100
  66.4509020   9.3486240  32.0407690  65.8876850  10.3666010  33.0094740
  69.3111240   5.9639120  18.8472650  70.1990860   6.2756350  18.6723990
  69.2816330   5.0911370  18.4553230  60.4202330  10.8696530  24.2533520
  60.9381000  10.0664790  24.1990410  59.9686350  10.8075670  25.0950350
  65.3071830  12.1362810  19.5260820  65.6487530  12.8805040  19.0304140
  64.4784540  12.4493930  19.8885650  57.9046870   7.8357900  31.1659220
  57.5461810   8.5011750  31.7532560  57.6101430   7.0041450  31.5371840
  61.1059990   8.2942140  34.0498770  60.8060130   8.4399320  33.1526590
  61.8771230   7.7347430  33.9572160  66.4488440  13.0911140  32.0453900
  66.4632980  12.1592100  31.8272810  65.7413540  13.1770900  32.6843670
  68.1899240  11.4578650  24.8906330  68.5423060  10.8606780  24.2307700
  67.3061570  11.1322880  25.0614580  64.2762520  12.2176340  22.2976740
  64.9633650  12.7645550  22.6784330  63.4894940  12.7617070  22.3326350
  56.4154920   7.8349160  17.7893820  57.2849770   8.1173960  18.0729740
  55.9245240   8.6485030  17.6742630  63.5789730   9.2222370  21.9102100
  64.0352510  10.0327620  22.1362290  63.2277940   8.9045510  22.7420590
  65.8822340  14.7328710  29.1394400  66.5264560  14.9388090  29.8167820
  66.2451780  13.9717110  28.6865250  67.1554420  12.7361060  27.8571850
  67.7976650  12.0354220  27.9704020  67.6803770  13.5159500  27.6768740
  71.0010140  13.0209680  17.5810990  70.7747720  12.3040120  18.1735630
  70.6106340  12.7722120  16.7432740  68.9292040  13.5355960  31.0607910
  69.2648280  14.1222650  31.7385830  68.0092380  13.4048670  31.2905700
  56.7826170  17.0476540  18.3555450  57.1423810  17.6465880  17.7012720
  56.6418510  17.5936430  19.1290480  70.5826390  10.9381620  19.2425150
  70.2948090  11.3994310  20.0303030  71.3778560  10.4779390  19.5109370
  56.7668030  15.3131400  32.8297850  56.8759150  14.3726140  32.6893240
  56.1148590  15.5786150  32.1811580  64.7580620  13.5847290  34.2295970
  64.4377490  12.8656530  34.7741660  64.0838980  14.2602360  34.3032030
  62.7994790  14.4307740  19.1729120  62.7904890  15.1637430  18.5573630
  61.8793150  14.1839320  19.2656080  58.4001430   9.6522630  19.9175880
  57.7929380  10.3921530  19.9271180  58.8750780   9.7421990  19.0914080
  67.9734220   3.8173450  29.5932770  68.3415040   2.9968660  29.9212340
  67.1132420   3.8775340  30.0088420  71.3396250   2.7730390  20.4020330
  70.7109410   2.8776060  19.6878560  70.8448170   2.9927170  21.1914210
  65.7854390  14.4935980  17.8354310  65.8866370  14.2899970  16.9056290
  64.8856130  14.2394260  18.0402090  63.3080280   5.0516340  21.8178210
  62.5996430   5.5202680  22.2591820  63.5924760   4.3938350  22.4523400
  64.9336210   6.4713040  29.8170740  65.4321460   6.9458860  30.4822590
  65.0759160   5.5476560  30.0240770  67.3395710   1.7767000  23.2574000
  67.2163490   1.7953130  22.3083510  68.2880270   1.8245940  23.3772400
  64.4272500  17.0122300  22.5301980  64.6814000  16.9743690  21.6081350
  63.4784980  16.8855630  22.5230230  61.5115300   3.3601420  19.1928920
  62.3605830   3.7971570  19.1269110  61.1446570   3.6721680  20.0200980
  70.4325080   7.9314180  24.1060490  69.4915220   7.9464410  24.2808180
  70.7469150   7.1450140  24.5520790  60.4106720   9.6133780  17.6664450
  61.1769990   9.5015140  18.2289880  60.4881410   8.9171750  17.0141220
  59.1053480   7.0458850  18.3497340  59.1857070   6.0986360  18.4614740
  59.9973230   7.3765730  18.4558000  59.9068190  17.1954240  25.4531880
  60.6430670  16.6469700  25.7240450  60.2909110  18.0610250  25.3137870
  56.7913670  13.2627810  21.3273390  55.8653450  13.5048950  21.3178800
  57.2570100  14.0902070  21.2058140  58.9126470  16.3800310  34.6417460
  59.7139200  16.7012360  35.0552860  58.3978290  16.0195890  35.3637370
  63.0170500  16.3684550  17.2757450  63.8099110  16.6573380  16.8239240
  62.4974850  15.9376720  16.5969930  67.7491100  12.4880180  34.5892870
  67.1429260  12.5111780  33.8488620  67.4445210  11.7563220  35.1260120
  69.1791470  16.2160470  33.2002280  70.1313220  16.1318490  33.1502520
  69.0319690  16.8802180  33.8736070  56.6324280   8.8673770  33.5853510
  57.1363300   8.2881050  34.1569740  55.8931700   9.1514000  34.1229880
  63.5347900  11.5887960  17.1399800  63.4298540  10.9740310  17.8661180
  63.3672120  11.0653850  16.3562810  63.6862220  10.2744760  33.1189030
  62.9207890  10.8429760  33.0343700  63.8678180   9.9820970  32.2257260
  66.7750630  10.6507990  17.7441790  66.2260730  11.0977290  18.3884530
  67.3969890  10.1457240  18.2679460  70.8285570  12.0050090  33.6764050
  71.5695040  12.3425850  33.1731510  70.0658250  12.1742150  33.1233820
  58.6647360   7.0103360  34.4803580  58.7052700   6.7117230  35.3888810
  59.5192860   7.4110970  34.3211100  62.4425750   9.6098910  19.6407090
  62.8642170   9.4438780  20.4838480  62.5676590   8.7999140  19.1462230
  60.6053170   5.5895460  32.4478070  60.0749630   5.0986410  31.8201410
  61.2741240   6.0179660  31.9136000  64.9553390   8.6336520  16.8884190
  65.4759050   7.9185540  16.5225340  65.6021790   9.2722390  17.1884700
  69.5031230  10.0564920  32.2119260  69.9172250  10.2110000  33.0609680
  68.5682230  10.1820140  32.3745040  69.9753400   7.3961080  34.2158410
  70.5574170   6.6413400  34.1278890  70.1515170   7.9268520  33.4389890
  61.0925470   2.5557830  32.5275360  60.9982340   1.9378580  31.8026230
  60.5122860   3.2824120  32.3005270  64.2646460  10.0085400  30.1815190
  64.6834570  10.8518130  30.0091430  63.3455090  10.1457440  29.9521970
  66.6010360   7.7401580  31.5653030  66.7206570   7.1442720  32.3047870
  67.4604360   7.7771270  31.1454330  68.9398260   8.2938770  30.1415540
  68.4133480   8.8181390  29.5380680  69.2829600   8.9266160  30.7725270
  61.3384650   5.6832140  16.5865250  61.1373710   4.8199500  16.9478590
  61.1676700   5.5965500  15.6486850  62.1153880  16.3138410  31.2972920
  61.5774970  17.0384470  30.9781620  62.3687840  15.8368750  30.5070260
  63.3679130   4.2822930  32.8228850  63.9578820   3.9738780  33.5106670
  62.5499370   3.8102680  32.9788750  68.1872560   3.8988740  33.0561870
  67.4988080   3.2370280  32.9911860  68.9078580   3.4527010  33.5010330
  60.1367450   2.7832760  16.5743130  60.4393350   2.7900190  15.6662280
  60.8762040   2.4330620  17.0710790  64.9716090  17.5489620  31.5559570
  64.8974790  18.4524760  31.8631940  64.0694930  17.2301520  31.5281640
  65.5201420  16.7148130  19.1785930  66.4152210  17.0533100  19.2004690
  65.5519050  15.9927540  18.5510210  59.1597580  12.0875180  17.4072930
  59.5972450  12.6304850  18.0630510  59.6445310  11.2622130  17.4169270
  56.3743380  14.8764210  24.8593190  56.7046390  14.0085270  24.6271830
  56.8034380  15.0822730  25.6898150  60.9705300  13.2073220  22.5195160
  60.6700840  13.0838190  23.4199070  60.8642790  12.3481810  22.1110890
  56.8633590  15.7434800  27.5974820  56.4264580  15.9235600  28.4298970
  57.4311270  16.5009420  27.4556540  56.6958020   8.2555030  23.9563700
  56.0406860   7.9866670  23.3123400  57.5335970   8.1459510  23.5065680
  71.1847410  11.9703780  29.9828290  70.3707250  12.4000940  30.2454080
  71.5921610  12.5822190  29.3697340  69.6448460   3.0496320  18.1782190
  70.0633340   2.8627300  17.3378850  69.3384520   2.1975370  18.4885120
  57.7333950   8.6407600  28.4967040  58.1006990   8.5535000  29.3763060
  57.1644770   7.8774150  28.3973900  57.2849950   5.5516690  32.4025460
  56.3906000   5.5183450  32.7419170  57.8247500   5.7503480  33.1676710
  70.9725880   2.3348410  34.2877210  71.8496060   2.3431810  34.6711210
  70.9846720   1.5979250  33.6769560  55.9096100   5.4653960  19.8989030
  55.0060180   5.7284160  19.7240690  56.3936720   5.7365130  19.1188990
  58.4523310   4.5219500  17.8083410  59.1615010   4.1002720  17.3230690
  57.7363250   4.5894730  17.1766760  71.2423460  16.7222380  23.5096560
  71.8382530  16.4006950  22.8330980  71.5001610  16.2494200  24.3009830
  59.1486030  13.1540290  33.6587190  59.1055660  12.7833200  34.5401650
  59.2797040  14.0917860  33.7989010  62.8492060  14.7099880  29.2596910
  62.6083420  14.9774440  28.3727430  63.7894700  14.8805610  29.3147770
  58.9874060  16.1002540  30.7784970  58.3934380  15.9687240  31.5175010
  58.9797900  15.2640680  30.3127070  71.7935670  17.3717680  27.3394290
  71.3338640  18.1233490  26.9652310  71.1648130  16.6524150  27.2809090
  58.6186290  13.4660920  29.7293010  57.8920350  12.8466210  29.6618960
  58.6795440  13.8601530  28.8591090  62.2231390  15.6805920  26.5142420
  62.7396410  15.0693280  25.9890680  62.8728770  16.1834700  27.0053430
  64.9626890  16.5714410  27.3411400  65.2504700  16.3168710  26.4644410
  65.4750110  16.0191770  27.9316970  56.9016290  16.7835310  22.9389770
  56.7338330  16.1505990  23.6371660  56.0350800  16.9894710  22.5883960
  64.0658120   2.7291360  23.4323940  63.2532630   2.3548250  23.0919820
  64.5699760   1.9736440  23.7345130  58.5078990  15.4768540  20.3839910
  57.9826610  15.8576570  19.6801870  58.4323570  16.1019310  21.1049620
  65.0299250  17.4930510  34.7079600  65.9566560  17.2574780  34.7515560
  65.0149680  18.3202510  34.2265630  61.1071960  17.4250920  19.2589160
  61.8390780  17.1410200  18.7113050  61.3665630  17.1864200  20.1488540
  60.2686750  13.5415650  19.2635490  59.6395630  14.0100750  19.8121320
  60.3834580  12.6964870  19.6981680  67.7236470   7.5921310   5.4136690
  67.6430520   6.6775920   5.1428400  67.3100890   8.0888380   4.7076400
  65.8554510   9.3700330   7.2945960  65.0796610   8.8900770   7.5844530
  66.5067440   8.6905980   7.1202120  59.8720340   9.6820140   8.1721720
  59.0405220   9.4268850   8.5718230  60.4801320   9.7530910   8.9079640
  69.8761940  13.7760520   6.0745090  69.4143470  13.0047760   6.4032260
  70.6887490  13.8026590   6.5797540  59.8521600  13.7160230   8.3679740
  60.1549640  12.8257970   8.1889960  60.5965190  14.2730450   8.1401990
  56.2445300   7.2427680   7.8403810  56.8161410   6.4749880   7.8407450
  56.2446840   7.5416440   6.9310420  66.1025250  16.0618530   5.6949080
  65.4836690  16.5176030   5.1243520  66.9577030  16.2169990   5.2938780
  65.2963500  12.0457520   7.3016120  65.2271780  11.1047460   7.1405250
  66.0583360  12.1358930   7.8738690  57.4870170   2.6512040   9.6272740
  57.3073010   1.7537790   9.9075500  57.0850250   3.1983910  10.3019690
  66.3268670   4.8527900   7.5285050  66.7033490   3.9799780   7.4158720
  66.2288180   5.1886600   6.6375490  60.4573680   3.2253530   2.9902490
  60.5640430   4.1257260   3.2971250  59.5466040   3.1771500   2.6997140
  70.1092790   2.3478340   4.4613390  70.9302410   1.8574910   4.5038870
  70.1426870   2.9376000   5.2145230  58.1056840   5.1472540   8.2355080
  58.7866950   5.4110910   8.8542480  57.7904890   4.3073410   8.5693090
  62.2981410   6.1939900   7.3227670  62.8059630   6.6920870   7.9632690
  62.8294650   5.4175100   7.1467030  66.9688600  10.9457770   3.0880990
  66.3505870  11.4107220   2.5243710  67.4811850  11.6385250   3.5050500
  61.8320360  10.4733640   9.7664590  61.4989740  11.1002560  10.4085660
  62.0087040  10.9995520   8.9866260  70.3454270   4.2878720   7.2340930
  69.6409840   4.5763610   7.8144040  70.7066430   5.0978830   6.8740490
  60.2632840   2.5448420   9.5961540  60.6049650   3.3890470   9.3015410
  59.3248650   2.6932160   9.7126880  61.0439460  12.4414440  11.5813770
  61.6613460  13.1165520  11.2998220  60.1832580  12.8502420  11.4901270
  69.4975790  15.7497980   8.2113590  69.5102950  15.3460270   7.3435850
  68.9451010  16.5245270   8.1075020  70.7921210  12.4714200   3.3003760
  70.6817540  11.5288530   3.4253180  70.7889460  12.8329840   4.1866520
  68.8961230  10.6527820   9.5396200  69.3130020  10.4387930   8.7049660
  69.6201050  10.9100610  10.1104820  66.3341490   8.0979520   2.6566250
  65.4070770   8.0316900   2.8854720  66.4866310   9.0359650   2.5421490
  70.3638780   9.6599820   3.1601500  69.7451200   9.3219370   2.5127800
  70.3463230   9.0159580   3.8680690  69.8065340   5.8384360  10.5767310
  69.3936520   6.6638070  10.8307300  69.0741290   5.2529400  10.3843670
  61.9398130   8.6244260   5.4385980  61.5355130   7.9121510   4.9431880
  62.0261250   8.2797500   6.3274020  62.4079830  12.3111820   7.6025190
  62.1108120  11.7057290   6.9232970  63.3579650  12.3489130   7.4914550
  60.6526750   5.3987470   9.2185020  61.2041340   5.5082810   8.4438270
  61.1670260   5.7725070   9.9340250  70.4965440  15.8843690  11.2648290
  70.0196000  16.6915880  11.0720900  69.8127230  15.2322020  11.4174500
  61.4998260  12.0493510  14.2532990  60.6026790  12.2733480  14.5006390
  61.5251130  12.1728450  13.3044390  60.3269480   8.9206830  12.8290360
  60.1877250   9.7929630  13.1977760  59.4450840   8.5779640  12.6838300
  66.6498860  13.8382700   4.1355490  67.0894770  14.5807030   3.7210880
  66.5885750  14.0809270   5.0594450  62.1249830  14.8628530  15.0375510
  62.0965260  15.2671480  14.1703940  61.9614800  13.9338890  14.8747110
  58.6402760   7.5189240   2.9392630  58.5200360   8.2451330   2.3273900
  58.3303650   6.7492150   2.4620540  56.2788130  10.6904380   8.7461270
  56.3568550  10.8253150   7.8016990  56.8929810   9.9820270   8.9389390
  57.5235760  12.3904570   5.1567450  57.1163840  12.5319160   4.3021050
  58.4148770  12.1064730   4.9538660  67.3414640  16.5396480  12.0634500
  67.8559310  16.4504490  12.8656930  66.4983720  16.8856180  12.3562410
  61.7957420  16.6050350   3.2690120  61.6199900  15.6885890   3.0557920
  60.9413160  16.9637640   3.5087920  68.5845100  15.9602090   4.1264990
  69.0402050  15.1791470   4.4403610  68.9237620  16.6708910   4.6706170
  56.3347650  11.7318550  11.2855730  56.4978690  11.2623910  10.4675100
  56.8000100  11.2242110  11.9504570  65.3936230   3.7292830  11.9251620
  64.9315600   3.9375850  12.7371560  64.9914340   2.9152180  11.6222290
  70.3940740   4.9501780  13.0548280  69.5434330   4.6507530  13.3757350
  70.2342530   5.1943790  12.1432100  67.4890450   6.4503530  15.1547070
  67.8143860   5.6167280  14.8149300  68.2770780   6.9732050  15.3025400
  60.8980640   5.9857880   4.0497550  60.6721560   5.7695050   4.9544170
  60.1173170   6.4186340   3.7043520  68.1278400   5.9921250   2.6488200
  67.5287290   6.7157050   2.4651820  68.6758010   5.9298030   1.8664650
  63.3379850   6.8843460  14.7157820  63.2423450   5.9438190  14.5658220
  64.1811830   7.1058530  14.3205890  66.7343270   4.6284790   4.6791480
  67.1272840   4.9456990   3.8660170  67.0960120   3.7496670   4.7936000
  58.4690390   3.2957130  12.8691600  58.0753780   4.1432340  13.0764380
  57.7808790   2.6583500  13.0600240  65.0435440   3.3792100  15.9388340
  64.3533760   3.1864300  16.5734430  65.7867740   3.6626740  16.4712640
  67.3198410   7.2190540   8.7742260  66.5879530   7.7277350   9.1232360
  66.9222750   6.4020520   8.4731040  63.7575800   3.8944740   7.1794750
  63.7611860   3.4534690   6.3299290  64.6526920   4.2162070   7.2866570
  59.6078180   3.7771230   6.1388960  59.2678230   4.2546460   6.8956010
  58.8455500   3.3236350   5.7790060  67.7824320   2.6724220   8.1865200
  67.7997060   3.1232870   9.0307050  67.5339900   1.7729860   8.3998640
  57.9086630  11.1069980  13.4451540  57.5241420  10.4663650  14.0434500
  58.2198820  11.8106100  14.0146270  64.0583770   7.9546520   8.9260160
  64.4253900   7.4805090   9.6721500  63.8688830   8.8288090   9.2668500
  56.9224260   2.6990210   5.0553630  56.6371180   2.3345880   5.8932250
  56.8603120   1.9670670   4.4416770  61.8483140   6.9955160  11.2444370
  61.5440210   7.8747140  11.4694730  62.8029600   7.0554950  11.2801810
  60.3764930  11.2016150   1.8411220  59.6027190  10.6613770   1.6809940
  61.1059560  10.6822760   1.5028980  71.1352910  10.1981510   7.6337610
  71.8552030  10.6936800   7.2433720  70.9334730   9.5199400   6.9891480
  66.5171710  10.2690570  13.5206610  66.4509020   9.3486240  13.2664200
  65.8876850  10.3666010  14.2351250  60.4202330  10.8696530   5.4790030
  60.9381000  10.0664790   5.4246920  59.9686350  10.8075670   6.3206860
  57.9046870   7.8357900  12.3915730  57.5461810   8.5011750  12.9789070
  57.6101430   7.0041450  12.7628350  61.1059990   8.2942140  15.2755280
  60.8060130   8.4399320  14.3783100  61.8771230   7.7347430  15.1828670
  66.4488440  13.0911140  13.2710410  66.4632980  12.1592100  13.0529320
  65.7413540  13.1770900  13.9100180  68.1899240  11.4578650   6.1162840
  68.5423060  10.8606780   5.4564210  67.3061570  11.1322880   6.2871090
  64.2762520  12.2176340   3.5233250  64.9633650  12.7645550   3.9040840
  63.4894940  12.7617070   3.5582860  63.5789730   9.2222370   3.1358610
  64.0352510  10.0327620   3.3618800  63.2277940   8.9045510   3.9677100
  65.8822340  14.7328710  10.3650910  66.5264560  14.9388090  11.0424330
  66.2451780  13.9717110   9.9121760  67.1554420  12.7361060   9.0828360
  67.7976650  12.0354220   9.1960530  67.6803770  13.5159500   8.9025250
  68.9292040  13.5355960  12.2864420  69.2648280  14.1222650  12.9642340
  68.0092380  13.4048670  12.5162210  56.7668030  15.3131400  14.0554360
  56.8759150  14.3726140  13.9149750  56.1148590  15.5786150  13.4068090
  64.7580620  13.5847290  15.4552480  64.4377490  12.8656530  15.9998170
  64.0838980  14.2602360  15.5288540  67.9734220   3.8173450  10.8189280
  68.3415040   2.9968660  11.1468850  67.1132420   3.8775340  11.2344930
  63.3080280   5.0516340   3.0434720  62.5996430   5.5202680   3.4848330
  63.5924760   4.3938350   3.6779910  64.9336210   6.4713040  11.0427250
  65.4321460   6.9458860  11.7079100  65.0759160   5.5476560  11.2497280
  67.3395710   1.7767000   4.4830510  67.2163490   1.7953130   3.5340020
  68.2880270   1.8245940   4.6028910  64.4272500  17.0122300   3.7558490
  64.6814000  16.9743690   2.8337860  63.4784980  16.8855630   3.7486740
  70.4325080   7.9314180   5.3317000  69.4915220   7.9464410   5.5064690
  70.7469150   7.1450140   5.7777300  59.9068190  17.1954240   6.6788390
  60.6430670  16.6469700   6.9496960  60.2909110  18.0610250   6.5394380
  56.7913670  13.2627810   2.5529900  55.8653450  13.5048950   2.5435310
  57.2570100  14.0902070   2.4314650  58.9126470  16.3800310  15.8673970
  59.7139200  16.7012360  16.2809370  58.3978290  16.0195890  16.5893880
  67.7491100  12.4880180  15.8149380  67.1429260  12.5111780  15.0745130
  67.4445210  11.7563220  16.3516630  69.1791470  16.2160470  14.4258790
  70.1313220  16.1318490  14.3759030  69.0319690  16.8802180  15.0992580
  56.6324280   8.8673770  14.8110020  57.1363300   8.2881050  15.3826250
  55.8931700   9.1514000  15.3486390  63.6862220  10.2744760  14.3445540
  62.9207890  10.8429760  14.2600210  63.8678180   9.9820970  13.4513770
  70.8285570  12.0050090  14.9020560  71.5695040  12.3425850  14.3988020
  70.0658250  12.1742150  14.3490330  58.6647360   7.0103360  15.7060090
  58.7052700   6.7117230  16.6145320  59.5192860   7.4110970  15.5467610
  60.6053170   5.5895460  13.6734580  60.0749630   5.0986410  13.0457920
  61.2741240   6.0179660  13.1392510  69.5031230  10.0564920  13.4375770
  69.9172250  10.2110000  14.2866190  68.5682230  10.1820140  13.6001550
  69.9753400   7.3961080  15.4414920  70.5574170   6.6413400  15.3535400
  70.1515170   7.9268520  14.6646400  61.0925470   2.5557830  13.7531870
  60.9982340   1.9378580  13.0282740  60.5122860   3.2824120  13.5261780
  64.2646460  10.0085400  11.4071700  64.6834570  10.8518130  11.2347940
  63.3455090  10.1457440  11.1778480  66.6010360   7.7401580  12.7909540
  66.7206570   7.1442720  13.5304380  67.4604360   7.7771270  12.3710840
  68.9398260   8.2938770  11.3672050  68.4133480   8.8181390  10.7637190
  69.2829600   8.9266160  11.9981780  62.1153880  16.3138410  12.5229430
  61.5774970  17.0384470  12.2038130  62.3687840  15.8368750  11.7326770
  63.3679130   4.2822930  14.0485360  63.9578820   3.9738780  14.7363180
  62.5499370   3.8102680  14.2045260  68.1872560   3.8988740  14.2818380
  67.4988080   3.2370280  14.2168370  68.9078580   3.4527010  14.7266840
  64.9716090  17.5489620  12.7816080  64.8974790  18.4524760  13.0888450
  64.0694930  17.2301520  12.7538150  56.3743380  14.8764210   6.0849700
  56.7046390  14.0085270   5.8528340  56.8034380  15.0822730   6.9154660
  60.9705300  13.2073220   3.7451670  60.6700840  13.0838190   4.6455580
  60.8642790  12.3481810   3.3367400  56.8633590  15.7434800   8.8231330
  56.4264580  15.9235600   9.6555480  57.4311270  16.5009420   8.6813050
  56.6958020   8.2555030   5.1820210  56.0406860   7.9866670   4.5379910
  57.5335970   8.1459510   4.7322190  71.1847410  11.9703780  11.2084800
  70.3707250  12.4000940  11.4710590  71.5921610  12.5822190  10.5953850
  57.7333950   8.6407600   9.7223550  58.1006990   8.5535000  10.6019570
  57.1644770   7.8774150   9.6230410  57.2849950   5.5516690  13.6281970
  56.3906000   5.5183450  13.9675680  57.8247500   5.7503480  14.3933220
  70.9725880   2.3348410  15.5133720  71.8496060   2.3431810  15.8967720
  70.9846720   1.5979250  14.9026070  71.2423460  16.7222380   4.7353070
  71.8382530  16.4006950   4.0587490  71.5001610  16.2494200   5.5266340
  59.1486030  13.1540290  14.8843700  59.1055660  12.7833200  15.7658160
  59.2797040  14.0917860  15.0245520  62.8492060  14.7099880  10.4853420
  62.6083420  14.9774440   9.5983940  63.7894700  14.8805610  10.5404280
  58.9874060  16.1002540  12.0041480  58.3934380  15.9687240  12.7431520
  58.9797900  15.2640680  11.5383580  71.7935670  17.3717680   8.5650800
  71.3338640  18.1233490   8.1908820  71.1648130  16.6524150   8.5065600
  58.6186290  13.4660920  10.9549520  57.8920350  12.8466210  10.8875470
  58.6795440  13.8601530  10.0847600  62.2231390  15.6805920   7.7398930
  62.7396410  15.0693280   7.2147190  62.8728770  16.1834700   8.2309940
  64.9626890  16.5714410   8.5667910  65.2504700  16.3168710   7.6900920
  65.4750110  16.0191770   9.1573480  56.9016290  16.7835310   4.1646280
  56.7338330  16.1505990   4.8628170  56.0350800  16.9894710   3.8140470
  64.0658120   2.7291360   4.6580450  63.2532630   2.3548250   4.3176330
  64.5699760   1.9736440   4.9601640  65.0299250  17.4930510  15.9336110
  65.9566560  17.2574780  15.9772070  65.0149680  18.3202510  15.4522140
  48.9492980  63.9151780  61.7367160  48.8687030  63.0006390  61.4658870
  48.5357400  64.4118850  61.0306870  47.0811020  65.6930800  63.6176430
  46.3053120  65.2131240  63.9075000  47.7323950  65.0136450  63.4432590
  41.0976850  66.0050610  64.4952190  40.2661730  65.7499320  64.8948700
  41.7057830  66.0761380  65.2310110  51.1018450  70.0990990  62.3975560
  50.6399980  69.3278230  62.7262730  51.9144000  70.1257060  62.9028010
  41.0778110  70.0390700  64.6910210  41.3806150  69.1488440  64.5120430
  41.8221700  70.5960920  64.4632460  39.5068800  60.9652500  58.2794580
  38.6185500  61.3068470  58.1774460  39.7909990  60.7652820  57.3875410
  37.4701810  63.5658150  64.1634280  38.0417920  62.7980350  64.1637920
  37.4703350  63.8646910  63.2540890  46.5220010  68.3687990  63.6246590
  46.4528290  67.4277930  63.4635720  47.2839870  68.4589400  64.1969160
  38.7126680  58.9742510  65.9503210  38.5329520  58.0768260  66.2305970
  38.3106760  59.5214380  66.6250160  47.5525180  61.1758370  63.8515520
  47.9290000  60.3030250  63.7389190  47.4544690  61.5117070  62.9605960
  41.6830190  59.5484000  59.3132960  41.7896940  60.4487730  59.6201720
  40.7722550  59.5001970  59.0227610  51.3349300  58.6708810  60.7843860
  52.1558920  58.1805380  60.8269340  51.3683380  59.2606470  61.5375700
  39.3313350  61.4703010  64.5585550  40.0123460  61.7341380  65.1772950
  39.0161400  60.6303880  64.8923560  43.5237920  62.5170370  63.6458140
  44.0316140  63.0151340  64.2863160  44.0551160  61.7405570  63.4697500
  55.6248850  60.6875560  67.3487490  54.9201020  61.0757270  66.8302600
  55.8906770  61.3825850  67.9508420  41.8074020  57.1568930  67.9121560
  41.8092460  57.6741320  67.1067460  40.9778330  56.6799110  67.8891490
  48.1945110  67.2688240  59.4111460  47.5762380  67.7337690  58.8474180
  48.7068360  67.9615720  59.8280970  43.0576870  66.7964110  66.0895060
  42.7246250  67.4233030  66.7316130  43.2343550  67.3225990  65.3096730
  51.5710780  60.6109190  63.5571400  50.8666350  60.8994080  64.1374510
  51.9322940  61.4209300  63.1970960  41.4889350  58.8678890  65.9192010
  41.8306160  59.7120940  65.6245880  40.5505160  59.0162630  66.0357350
  42.2695970  68.7644910  67.9044240  42.8869970  69.4395990  67.6228690
  41.4089090  69.1732890  67.8131740  37.5628310  67.9544770  56.7851090
  37.1856290  68.4431870  56.0535990  37.8201380  68.6270050  57.4157620
  53.1873560  70.2284320  65.8198880  52.5037080  70.8983430  65.8115550
  53.7267850  70.4264970  65.0543740  54.6397700  60.0563980  63.9480610
  53.6922610  60.0902960  64.0796040  54.9647690  60.8702930  64.3329970
  45.1717240  56.3561160  62.2436600  45.4792220  55.8008050  61.5272100
  44.2417940  56.4905620  62.0609590  52.0177720  68.7944670  59.6234230
  51.9074050  67.8519000  59.7483650  52.0145970  69.1560310  60.5096990
  50.1217740  66.9758290  65.8626670  50.5386530  66.7618400  65.0280130
  50.8457560  67.2331080  66.4335290  47.5598000  64.4209990  58.9796720
  46.6327280  64.3547370  59.2085190  47.7122820  65.3590120  58.8651960
  47.5467080  60.6926990  55.9763880  46.6070750  60.8540950  56.0616340
  47.8650340  61.4112670  55.4299870  54.0679840  65.3745510  65.9542910
  53.2398470  65.4438600  65.4793040  54.6630320  65.9599820  65.4858740
  51.5895290  65.9830290  59.4831970  50.9707710  65.6449840  58.8358270
  51.5719740  65.3390050  60.1911160  51.0321850  62.1614830  66.8997780
  50.6193030  62.9868540  67.1537770  50.2997800  61.5759870  66.7074140
  43.1654640  64.9474730  61.7616450  42.7611640  64.2351980  61.2662350
  43.2517760  64.6027970  62.6504490  43.6336340  68.6342290  63.9255660
  43.3364630  68.0287760  63.2463440  44.5836160  68.6719600  63.8145020
  41.8783260  61.7217940  65.5415490  42.4297850  61.8313280  64.7668740
  42.3926770  62.0955540  66.2570720  49.7659990  65.2217100  56.4904720
  50.2053270  64.3839530  56.3442540  50.4788410  65.8546500  56.5768860
  47.8755370  70.1613170  60.4585960  48.3151280  70.9037500  60.0441350
  47.8142260  70.4039740  61.3824920  53.3477130  56.4759910  54.8045760
  53.0349790  56.5686740  55.7044830  54.1089600  57.0540940  54.7543190
  39.8659270  63.8419710  59.2623100  39.7456870  64.5681800  58.6504370
  39.5560160  63.0722620  58.7851010  37.5044640  67.0134850  65.0691740
  37.5825060  67.1483620  64.1247460  38.1186320  66.3050740  65.2619860
  38.7492270  68.7135040  61.4797920  38.3420350  68.8549630  60.6251520
  39.6405280  68.4295200  61.2769130  50.2451680  70.6569850  56.3746970
  49.5516840  70.6547140  55.7149250  50.9874540  70.2329170  55.9441140
  37.5604160  68.0549020  67.6086200  37.7235200  67.5854380  66.7905570
  38.0256610  67.5472580  68.2735040  42.3322930  57.1854780  62.6446770
  41.8891080  57.9664320  62.3131290  42.8907920  57.5084670  63.3517710
  46.6192740  60.0523300  68.2482090  46.1572110  60.2606320  69.0602030
  46.2170850  59.2382650  67.9452760  45.4481750  56.8065480  57.5252600
  44.8235930  56.8025350  58.2505910  45.3611870  55.9396440  57.1288570
  44.3698830  57.7302110  64.5036370  44.6671160  58.6364940  64.4228390
  44.9184390  57.2420890  63.8895940  42.1237150  62.3088350  60.3728020
  41.8978070  62.0925520  61.2774640  41.3429680  62.7416810  60.0273990
  49.3534910  62.3151720  58.9718670  48.7543800  63.0387520  58.7882290
  49.9014520  62.2528500  58.1895120  47.9599780  60.9515260  61.0021950
  48.3529350  61.2687460  60.1890640  48.3216630  60.0727140  61.1166470
  36.9963950  57.5416060  63.2252150  36.7077000  58.1118920  63.9377130
  37.7409710  57.0620510  63.5883380  37.1834180  61.4836180  54.4354870
  37.1008850  62.4266940  54.5769860  36.8317240  61.3411090  53.5567220
  48.5454920  63.5421010  65.0972730  47.8136040  64.0507820  65.4462830
  48.1479260  62.7250990  64.7961510  44.9832310  60.2175210  63.5025220
  44.9868370  59.7765160  62.6529760  45.8783430  60.5392540  63.6097040
  40.8334690  60.1001700  62.4619430  40.4934740  60.5776930  63.2186480
  40.0712010  59.6466820  62.1020530  45.0452460  61.2187290  56.4931980
  45.1665280  61.1773770  57.4417800  44.6600970  62.0811440  56.3378710
  49.0080830  58.9954690  64.5095670  49.0253570  59.4463340  65.3537520
  48.7596410  58.0960330  64.7229110  44.0573960  63.5288430  55.8915280
  43.4890860  63.0806680  55.2651190  44.7662960  63.8881210  55.3580430
  45.2840280  64.2776990  65.2490630  45.6510410  63.8035560  65.9951970
  45.0945340  65.1518560  65.5898970  38.1480770  59.0220680  61.3784100
  37.8627690  58.6576350  62.2162720  38.0859630  58.2901140  60.7647240
  43.0739650  63.3185630  67.5674840  42.7696720  64.1977610  67.7925200
  44.0286110  63.3785420  67.6032280  41.6021440  67.5246620  58.1641690
  40.8283700  66.9844240  58.0040410  42.3316070  67.0053230  57.8259450
  52.3609420  66.5211980  63.9568080  53.0808540  67.0167270  63.5664190
  52.1591240  65.8429870  63.3121950  47.8219360  57.9149940  58.0997470
  47.0083970  57.4163110  58.0242780  47.6281310  58.7548190  57.6833820
  50.5367750  62.2869590  56.3959630  51.4247370  62.5986820  56.2210970
  50.5072840  61.4141840  56.0040210  41.6458840  67.1927000  61.8020500
  42.1637510  66.3895260  61.7477390  41.1942860  67.1306140  62.6437330
  46.5328340  68.4593280  57.0747800  46.8744040  69.2035510  56.5791120
  45.7041050  68.7724400  57.4372630  52.8082020  63.5981430  55.8639490
  52.7245740  64.0295650  55.0135930  53.5276210  64.0579780  56.2966310
  53.8856160  66.0548950  68.9409460  53.1604350  66.6477730  68.7438850
  54.4131620  66.0472490  68.1422830  53.8369270  70.4523690  58.5921620
  53.1945430  69.7979310  58.8665340  53.4499930  70.8578780  57.8162290
  49.4155750  67.7809120  62.4393310  49.7679570  67.1837250  61.7794680
  48.5318080  67.4553350  62.6101560  45.5019030  68.5406810  59.8463720
  46.1890160  69.0876020  60.2271310  44.7151450  69.0847540  59.8813330
  37.6411430  64.1579630  55.3380800  38.5106280  64.4404430  55.6216720
  37.1501750  64.9715500  55.2229610  44.8046240  65.5452840  59.4589080
  45.2609020  66.3558090  59.6849270  44.4534450  65.2275980  60.2907570
  47.1078850  71.0559180  66.6881380  47.7521070  71.2618560  67.3654800
  47.4708290  70.2947580  66.2352230  40.7058020  55.8890490  59.9311600
  40.5772650  55.8808390  60.8796520  39.8820040  56.2273580  59.5802610
  48.3810930  69.0591530  65.4058830  49.0233160  68.3584690  65.5191000
  48.9060280  69.8389970  65.2255720  52.2266650  69.3440150  55.1297970
  52.0004230  68.6270590  55.7222610  51.8362850  69.0952590  54.2919720
  51.8082900  67.2612090  56.7912130  51.5204600  67.7224780  57.5790010
  52.6035070  66.8009860  57.0596350  44.0251300  70.7538210  56.7216100
  44.0161400  71.4867900  56.1060610  43.1049660  70.5069790  56.8143060
  39.6257940  65.9753100  57.4662860  39.0185890  66.7152000  57.4758160
  40.1007290  66.0652460  56.6401060  49.1990730  60.1403920  67.1419750
  49.5671550  59.3199130  67.4699320  48.3388930  60.2005810  67.5575400
  52.5652760  59.0960860  57.9507310  51.9365920  59.2006530  57.2365540
  52.0704680  59.3157640  58.7401190  47.0110900  70.8166450  55.3841290
  47.1122880  70.6130440  54.4543270  46.1112640  70.5624730  55.5889070
  44.5336790  61.3746810  59.3665190  43.8252940  61.8433150  59.8078800
  44.8181270  60.7168820  60.0010380  46.1592720  62.7943510  67.3657720
  46.6577970  63.2689330  68.0309570  46.3015670  61.8707030  67.5727750
  48.5652220  58.0997470  60.8060980  48.4420000  58.1183600  59.8570490
  49.5136780  58.1476410  60.9259380  42.7371810  59.6831890  56.7415900
  43.5862340  60.1202040  56.6756090  42.3703080  59.9952150  57.5687960
  53.3659580  59.0111470  68.2086110  52.8633180  59.7516870  68.5479920
  54.1816240  59.3995470  67.8922900  51.6581590  64.2544650  61.6547470
  50.7171730  64.2694880  61.8295160  51.9725660  63.4680610  62.1007770
  41.6363230  65.9364250  55.2151430  42.4026500  65.8245610  55.7776860
  41.7137920  65.2402220  54.5628200  40.3309990  63.3689320  55.8984320
  40.4113580  62.4216830  56.0101720  41.2229740  63.6996200  56.0044980
  38.0170180  69.5858280  58.8760370  37.0909960  69.8279420  58.8665780
  38.4826610  70.4132540  58.7545120  44.7604410  67.9118430  54.6886780
  44.6555050  67.2970780  55.4148160  44.5928630  67.3884320  53.9049790
  48.0007140  66.9738460  55.2928770  47.4517240  67.4207760  55.9371510
  48.6226400  66.4687710  55.8166440  43.6682260  65.9329380  57.1894070
  44.0898680  65.7669250  58.0325460  43.7933100  65.1229610  56.6949210
  46.1809900  64.9566990  54.4371170  46.7015560  64.2416010  54.0712320
  46.8278300  65.5952860  54.7371680  45.0843420  57.4361540  67.1089730
  44.6360720  57.4585800  66.2635280  44.4508620  57.0380560  67.7060030
  45.4902970  66.3315870  67.7302170  45.9091080  67.1748600  67.5578410
  44.5711600  66.4687910  67.5008950  50.1654770  64.6169240  67.6902520
  49.6389990  65.1411860  67.0867660  50.5086110  65.2496630  68.3212250
  42.5641160  62.0062610  54.1352230  42.3630220  61.1429970  54.4965570
  42.3933210  61.9195970  53.1973830  50.0429470  56.8170840  56.6639110
  50.3231760  55.9738740  57.0198530  49.2695200  57.0493950  57.1777860
  41.3623960  59.1063230  54.1230110  41.6649860  59.1130660  53.2149260
  42.1018550  58.7561090  54.6197770  44.5808890  58.0497850  55.1086310
  44.2330890  57.3721840  54.5288760  44.7821660  57.5887360  55.9229700
  40.3854090  68.4105650  54.9559910  40.8228960  68.9535320  55.6117490
  40.8701820  67.5852600  54.9656250  37.5999890  71.1994680  62.4080170
  37.9302900  70.3315740  62.1758810  38.0290890  71.4053200  63.2385130
  42.1961810  69.5303690  60.0682140  41.8957350  69.4068660  60.9686050
  42.0899300  68.6712280  59.6597870  54.9653730  69.3100090  54.7708820
  54.1346690  69.3776740  55.2416050  55.1425560  70.2004210  54.4675680
  54.4210190  66.0547570  57.2743020  55.1829100  66.6244220  57.3802710
  54.4364560  65.4874770  58.0451330  37.9214530  64.5785500  61.5050680
  37.2663370  64.3097140  60.8610380  38.7592480  64.4689980  61.0552660
  55.4270160  66.9097670  62.1184950  55.7978990  66.1264990  61.7120920
  56.0672090  67.5986770  61.9402250  52.4103920  68.2934250  67.5315270
  51.5963760  68.7231410  67.7941060  52.8178120  68.9052660  66.9184320
  54.4729360  66.3481940  54.4315540  54.7478200  67.2560820  54.3034760
  54.2840100  66.2844470  55.3677530  50.8704970  59.3726790  55.7269170
  51.2889850  59.1857770  54.8865830  50.5641030  58.5205840  56.0372100
  54.3694700  64.2850930  59.4244970  53.9938300  63.5178860  58.9926260
  53.6397820  64.6673630  59.9119900  38.9590460  64.9638070  66.0454020
  39.3263500  64.8765470  66.9250040  38.3901280  64.2004620  65.9460880
  53.7594320  63.4322450  69.0584490  53.5280410  63.2035200  68.1582440
  54.0198870  64.3522000  69.0129380  37.1352610  61.7884430  57.4476010
  36.2316690  62.0514630  57.2727670  37.6193230  62.0595600  56.6675970
  53.6445660  62.5108420  62.7252210  54.1683140  62.0171070  62.0942380
  54.2305080  62.6458780  63.4699780  53.8235380  62.5948290  66.2471760
  52.8738090  62.5611830  66.3616750  54.0048390  63.5048400  66.0121530
  39.6779820  60.8449970  55.3570390  40.3871520  60.4233190  54.8717670
  38.9619760  60.9125200  54.7253740  39.3253980  56.8989300  54.3973040
  40.0482110  57.4398240  54.7154260  39.5978500  56.6252720  53.5214580
  53.1345630  61.7681770  58.6644620  53.6304750  61.5352640  59.4493500
  52.9361700  60.9293610  58.2482260  39.0146170  56.1495490  64.2995660
  39.6622360  55.5992870  63.8590820  39.4348010  56.4038640  65.1211470
  54.5632790  60.4042720  61.1982300  54.4532070  60.2498760  62.1364570
  55.3240380  59.8763660  60.9557710  52.9098510  56.3436850  67.6565300
  53.5470730  56.9570990  68.0224490  53.0573400  56.3797510  66.7114530
  55.4523060  58.2350640  54.4388440  56.3772370  58.1031820  54.2306730
  55.4298850  58.3143460  55.3924890  55.5261550  59.0061300  57.0645150
  54.7313050  58.9406420  57.5938060  55.7304830  59.9411940  57.0530500
  38.7678170  56.3051160  67.0420980  38.4192990  56.7614980  67.8079160
  38.4365870  55.4108290  67.1243410  44.0748570  71.0330350  66.8083890
  43.8339930  71.3004910  65.9214410  45.0151210  71.2036080  66.8634750
  49.6585590  55.7165240  66.5301980  48.7845430  56.0500350  66.3274910
  49.5496340  55.2438420  67.3553850  50.5657570  57.9236110  67.9143700
  50.2370930  57.1087870  67.5345430  51.5139870  57.8805920  67.7909390
  39.8442800  69.7891390  67.2779990  39.1176860  69.1696680  67.2105940
  39.9051950  70.1832000  66.4078070  47.4060410  56.6335080  65.4694890
  46.6232200  57.1080580  65.7491650  47.1123340  55.7289910  65.3608070
  51.9581480  57.3358180  63.5143980  52.3989570  57.2803280  62.6665580
  51.6889070  58.2516190  63.5854160  53.8220050  56.9673420  61.5252800
  53.7608450  56.0234640  61.3783820  54.6012080  57.0753510  62.0706260
  38.7500820  56.9382560  57.9908610  39.5080180  57.0511440  57.4172640
  38.2877990  57.7751760  57.9452040  45.2914630  59.0521830  60.9810920
  44.4789140  58.6778720  60.6406800  45.7956270  58.2966910  61.2832110
  49.7939610  55.7164280  62.2193990  50.3968980  56.2884490  62.6942510
  49.0532600  56.2803720  61.9967890  52.9374210  56.1185840  57.4934270
  53.1324840  57.0169290  57.7601700  52.1504080  55.8872920  57.9867220
  41.1225970  57.4646610  56.5310580  41.6518730  56.6776410  56.4018530
  41.7554290  58.1437800  56.7646110  43.3163810  57.2021750  59.5855970
  42.6866550  56.5009060  59.7526100  42.7768950  57.9625880  59.3689130
  41.4943260  69.8646120  56.8122470  40.8652140  70.3331220  57.3608300
  41.6091090  69.0195340  57.2468660  48.9492980  63.9151780  42.9623670
  48.8687030  63.0006390  42.6915380  48.5357400  64.4118850  42.2563380
  47.0811020  65.6930800  44.8432940  46.3053120  65.2131240  45.1331510
  47.7323950  65.0136450  44.6689100  41.0976850  66.0050610  45.7208700
  40.2661730  65.7499320  46.1205210  41.7057830  66.0761380  46.4566620
  51.1018450  70.0990990  43.6232070  50.6399980  69.3278230  43.9519240
  51.9144000  70.1257060  44.1284520  41.0778110  70.0390700  45.9166720
  41.3806150  69.1488440  45.7376940  41.8221700  70.5960920  45.6888970
  39.5068800  60.9652500  39.5051090  38.6185500  61.3068470  39.4030970
  39.7909990  60.7652820  38.6131920  37.4701810  63.5658150  45.3890790
  38.0417920  62.7980350  45.3894430  37.4703350  63.8646910  44.4797400
  46.5220010  68.3687990  44.8503100  46.4528290  67.4277930  44.6892230
  47.2839870  68.4589400  45.4225670  38.7126680  58.9742510  47.1759720
  38.5329520  58.0768260  47.4562480  38.3106760  59.5214380  47.8506670
  47.5525180  61.1758370  45.0772030  47.9290000  60.3030250  44.9645700
  47.4544690  61.5117070  44.1862470  41.6830190  59.5484000  40.5389470
  41.7896940  60.4487730  40.8458230  40.7722550  59.5001970  40.2484120
  51.3349300  58.6708810  42.0100370  52.1558920  58.1805380  42.0525850
  51.3683380  59.2606470  42.7632210  39.3313350  61.4703010  45.7842060
  40.0123460  61.7341380  46.4029460  39.0161400  60.6303880  46.1180070
  43.5237920  62.5170370  44.8714650  44.0316140  63.0151340  45.5119670
  44.0551160  61.7405570  44.6954010  55.6248850  60.6875560  48.5744000
  54.9201020  61.0757270  48.0559110  55.8906770  61.3825850  49.1764930
  41.8074020  57.1568930  49.1378070  41.8092460  57.6741320  48.3323970
  40.9778330  56.6799110  49.1148000  48.1945110  67.2688240  40.6367970
  47.5762380  67.7337690  40.0730690  48.7068360  67.9615720  41.0537480
  43.0576870  66.7964110  47.3151570  42.7246250  67.4233030  47.9572640
  43.2343550  67.3225990  46.5353240  51.5710780  60.6109190  44.7827910
  50.8666350  60.8994080  45.3631020  51.9322940  61.4209300  44.4227470
  41.4889350  58.8678890  47.1448520  41.8306160  59.7120940  46.8502390
  40.5505160  59.0162630  47.2613860  42.2695970  68.7644910  49.1300750
  42.8869970  69.4395990  48.8485200  41.4089090  69.1732890  49.0388250
  37.5628310  67.9544770  38.0107600  37.1856290  68.4431870  37.2792500
  37.8201380  68.6270050  38.6414130  53.1873560  70.2284320  47.0455390
  52.5037080  70.8983430  47.0372060  53.7267850  70.4264970  46.2800250
  54.6397700  60.0563980  45.1737120  53.6922610  60.0902960  45.3052550
  54.9647690  60.8702930  45.5586480  45.1717240  56.3561160  43.4693110
  45.4792220  55.8008050  42.7528610  44.2417940  56.4905620  43.2866100
  52.0177720  68.7944670  40.8490740  51.9074050  67.8519000  40.9740160
  52.0145970  69.1560310  41.7353500  50.1217740  66.9758290  47.0883180
  50.5386530  66.7618400  46.2536640  50.8457560  67.2331080  47.6591800
  47.5598000  64.4209990  40.2053230  46.6327280  64.3547370  40.4341700
  47.7122820  65.3590120  40.0908470  47.5467080  60.6926990  37.2020390
  46.6070750  60.8540950  37.2872850  47.8650340  61.4112670  36.6556380
  54.0679840  65.3745510  47.1799420  53.2398470  65.4438600  46.7049550
  54.6630320  65.9599820  46.7115250  51.5895290  65.9830290  40.7088480
  50.9707710  65.6449840  40.0614780  51.5719740  65.3390050  41.4167670
  51.0321850  62.1614830  48.1254290  50.6193030  62.9868540  48.3794280
  50.2997800  61.5759870  47.9330650  43.1654640  64.9474730  42.9872960
  42.7611640  64.2351980  42.4918860  43.2517760  64.6027970  43.8761000
  43.6336340  68.6342290  45.1512170  43.3364630  68.0287760  44.4719950
  44.5836160  68.6719600  45.0401530  41.8783260  61.7217940  46.7672000
  42.4297850  61.8313280  45.9925250  42.3926770  62.0955540  47.4827230
  42.7254770  68.3723980  51.8019970  41.8283300  68.5963950  52.0493370
  42.7507640  68.4958920  50.8531370  49.7659990  65.2217100  37.7161230
  50.2053270  64.3839530  37.5699050  50.4788410  65.8546500  37.8025370
  41.5525990  65.2437300  50.3777340  41.4133760  66.1160100  50.7464740
  40.6707350  64.9010110  50.2325280  47.8755370  70.1613170  41.6842470
  48.3151280  70.9037500  41.2697860  47.8142260  70.4039740  42.6081430
  43.3506340  71.1859000  52.5862490  43.3221770  71.5901950  51.7190920
  43.1871310  70.2569360  52.4234090  53.3477130  56.4759910  36.0302270
  53.0349790  56.5686740  36.9301340  54.1089600  57.0540940  35.9799700
  39.8659270  63.8419710  40.4879610  39.7456870  64.5681800  39.8760880
  39.5560160  63.0722620  40.0107520  37.5044640  67.0134850  46.2948250
  37.5825060  67.1483620  45.3503970  38.1186320  66.3050740  46.4876370
  38.7492270  68.7135040  42.7054430  38.3420350  68.8549630  41.8508030
  39.6405280  68.4295200  42.5025640  54.7054410  69.1598950  51.0426670
  54.8317470  68.9210830  50.1243850  54.7475790  68.3283490  51.5148750
  50.2451680  70.6569850  37.6003480  49.5516840  70.6547140  36.9405760
  50.9874540  70.2329170  37.1697650  54.5578420  61.2131410  52.0076410
  53.9422690  61.7211080  51.4791870  54.2374840  60.3129740  51.9502350
  37.5604160  68.0549020  48.8342710  37.7235200  67.5854380  48.0162080
  38.0256610  67.5472580  49.4991550  42.3322930  57.1854780  43.8703280
  41.8891080  57.9664320  43.5387800  42.8907920  57.5084670  44.5774220
  46.6192740  60.0523300  49.4738600  46.1572110  60.2606320  50.2858540
  46.2170850  59.2382650  49.1709270  51.6197250  61.2732250  50.6035260
  50.7690840  60.9738000  50.9244330  51.4599040  61.5174260  49.6919080
  48.7146960  62.7734000  52.7034050  49.0400370  61.9397750  52.3636280
  49.5027290  63.2962520  52.8512380  45.4481750  56.8065480  38.7509110
  44.8235930  56.8025350  39.4762420  45.3611870  55.9396440  38.3545080
  44.3698830  57.7302110  45.7292880  44.6671160  58.6364940  45.6484900
  44.9184390  57.2420890  45.1152450  42.1237150  62.3088350  41.5984530
  41.8978070  62.0925520  42.5031150  41.3429680  62.7416810  41.2530500
  49.3534910  62.3151720  40.1975180  48.7543800  63.0387520  40.0138800
  49.9014520  62.2528500  39.4151630  44.5636360  63.2073930  52.2644800
  44.4679960  62.2668660  52.1145200  45.4068340  63.4289000  51.8692870
  47.9599780  60.9515260  42.2278460  48.3529350  61.2687460  41.4147150
  48.3216630  60.0727140  42.3422980  39.6946900  59.6187600  50.4178580
  39.3010290  60.4662810  50.6251360  39.0065300  58.9813970  50.6087220
  46.2691950  59.7022570  53.4875320  45.5790270  59.5094770  54.1221410
  47.0124250  59.9857210  54.0199620  36.9963950  57.5416060  44.4508660
  36.7077000  58.1118920  45.1633640  37.7409710  57.0620510  44.8139890
  37.1834180  61.4836180  35.6611380  37.1008850  62.4266940  35.8026370
  36.8317240  61.3411090  34.7823730  48.5454920  63.5421010  46.3229240
  47.8136040  64.0507820  46.6719340  48.1479260  62.7250990  46.0218020
  44.9832310  60.2175210  44.7281730  44.9868370  59.7765160  43.8786270
  45.8783430  60.5392540  44.8353550  40.8334690  60.1001700  43.6875940
  40.4934740  60.5776930  44.4442990  40.0712010  59.6466820  43.3277040
  45.0452460  61.2187290  37.7188490  45.1665280  61.1773770  38.6674310
  44.6600970  62.0811440  37.5635220  49.0080830  58.9954690  45.7352180
  49.0253570  59.4463340  46.5794030  48.7596410  58.0960330  45.9485620
  44.0573960  63.5288430  37.1171790  43.4890860  63.0806680  36.4907700
  44.7662960  63.8881210  36.5836940  52.4351580  56.4086870  51.5738560
  52.7597350  55.6776530  52.0996540  52.4708090  56.0900510  50.6719550
  39.1343140  67.4300450  50.9938520  38.7497930  66.7894120  51.5921480
  39.4455330  68.1336570  51.5633250  45.2840280  64.2776990  46.4747140
  45.6510410  63.8035560  47.2208480  45.0945340  65.1518560  46.8155480
  38.1480770  59.0220680  42.6040610  37.8627690  58.6576350  43.4419230
  38.0859630  58.2901140  41.9903750  43.0739650  63.3185630  48.7931350
  42.7696720  64.1977610  49.0181710  44.0286110  63.3785420  48.8288790
  41.6021440  67.5246620  39.3898200  40.8283700  66.9844240  39.2296920
  42.3316070  67.0053230  39.0515960  52.3609420  66.5211980  45.1824590
  53.0808540  67.0167270  44.7920700  52.1591240  65.8429870  44.5378460
  47.8219360  57.9149940  39.3253980  47.0083970  57.4163110  39.2499290
  47.6281310  58.7548190  38.9090330  47.7428220  66.5921040  51.0693590
  47.6765530  65.6716710  50.8151180  47.1133360  66.6896480  51.7838230
  50.5367750  62.2869590  37.6216140  51.4247370  62.5986820  37.4467480
  50.5072840  61.4141840  37.2296720  41.6458840  67.1927000  43.0277010
  42.1637510  66.3895260  42.9733900  41.1942860  67.1306140  43.8693840
  46.5328340  68.4593280  38.3004310  46.8744040  69.2035510  37.8047630
  45.7041050  68.7724400  38.6629140  39.1303380  64.1588370  49.9402710
  38.7718320  64.8242220  50.5276050  38.8357940  63.3271920  50.3115330
  42.3316500  64.6172610  52.8242260  42.0316640  64.7629790  51.9270080
  43.1027740  64.0577900  52.7315650  47.6744950  69.4141610  50.8197390
  47.6889490  68.4822570  50.6016300  46.9670050  69.5001370  51.4587160
  52.8082020  63.5981430  37.0896000  52.7245740  64.0295650  36.2392440
  53.5276210  64.0579780  37.5222820  53.8856160  66.0548950  50.1665970
  53.1604350  66.6477730  49.9695360  54.4131620  66.0472490  49.3679340
  53.8369270  70.4523690  39.8178130  53.1945430  69.7979310  40.0921850
  53.4499930  70.8578780  39.0418800  49.4155750  67.7809120  43.6649820
  49.7679570  67.1837250  43.0051190  48.5318080  67.4553350  43.8358070
  45.5019030  68.5406810  41.0720230  46.1890160  69.0876020  41.4527820
  44.7151450  69.0847540  41.1069840  37.6411430  64.1579630  36.5637310
  38.5106280  64.4404430  36.8473230  37.1501750  64.9715500  36.4486120
  44.8046240  65.5452840  40.6845590  45.2609020  66.3558090  40.9105780
  44.4534450  65.2275980  41.5164080  47.1078850  71.0559180  47.9137890
  47.7521070  71.2618560  48.5911310  47.4708290  70.2947580  47.4608740
  40.7058020  55.8890490  41.1568110  40.5772650  55.8808390  42.1053030
  39.8820040  56.2273580  40.8059120  48.3810930  69.0591530  46.6315340
  49.0233160  68.3584690  46.7447510  48.9060280  69.8389970  46.4512230
  52.2266650  69.3440150  36.3554480  52.0004230  68.6270590  36.9479120
  51.8362850  69.0952590  35.5176230  50.1548550  69.8586430  49.8351400
  50.4904790  70.4453120  50.5129320  49.2348890  69.7279140  50.0649190
  37.7051950  57.6481610  50.6174810  36.9910470  57.8478530  51.2227420
  38.1246990  56.8721180  50.9889610  51.8082900  67.2612090  38.0168640
  51.5204600  67.7224780  38.8046520  52.6035070  66.8009860  38.2852860
  45.9837130  69.9077760  53.0039460  45.6634000  69.1887000  53.5485150
  45.3095490  70.5832830  53.0775520  44.0251300  70.7538210  37.9472610
  44.0161400  71.4867900  37.3317120  43.1049660  70.5069790  38.0399570
  39.6257940  65.9753100  38.6919370  39.0185890  66.7152000  38.7014670
  40.1007290  66.0652460  37.8657570  49.1990730  60.1403920  48.3676260
  49.5671550  59.3199130  48.6955830  48.3388930  60.2005810  48.7831910
  52.5652760  59.0960860  39.1763820  51.9365920  59.2006530  38.4622050
  52.0704680  59.3157640  39.9657700  47.0110900  70.8166450  36.6097800
  47.1122880  70.6130440  35.6799780  46.1112640  70.5624730  36.8145580
  44.5336790  61.3746810  40.5921700  43.8252940  61.8433150  41.0335310
  44.8181270  60.7168820  41.2266890  46.1592720  62.7943510  48.5914230
  46.6577970  63.2689330  49.2566080  46.3015670  61.8707030  48.7984260
  48.5652220  58.0997470  42.0317490  48.4420000  58.1183600  41.0827000
  49.5136780  58.1476410  42.1515890  42.7371810  59.6831890  37.9672410
  43.5862340  60.1202040  37.9012600  42.3703080  59.9952150  38.7944470
  53.3659580  59.0111470  49.4342620  52.8633180  59.7516870  49.7736430
  54.1816240  59.3995470  49.1179410  51.6581590  64.2544650  42.8803980
  50.7171730  64.2694880  43.0551670  51.9725660  63.4680610  43.3264280
  41.6363230  65.9364250  36.4407940  42.4026500  65.8245610  37.0033370
  41.7137920  65.2402220  35.7884710  40.3309990  63.3689320  37.1240830
  40.4113580  62.4216830  37.2358230  41.2229740  63.6996200  37.2301490
  38.0170180  69.5858280  40.1016880  37.0909960  69.8279420  40.0922290
  38.4826610  70.4132540  39.9801630  48.9747610  68.8110650  53.3636360
  48.3685770  68.8342250  52.6232110  48.6701720  68.0793690  53.9003610
  37.8580790  65.1904240  52.3597000  38.3619810  64.6111520  52.9313230
  37.1188210  65.4744470  52.8973370  44.7604410  67.9118430  35.9143290
  44.6555050  67.2970780  36.6404670  44.5928630  67.3884320  35.1306300
  44.9118730  66.5975230  51.8932520  44.1464400  67.1660230  51.8087190
  45.0934690  66.3051440  51.0000750  48.0007140  66.9738460  36.5185280
  47.4517240  67.4207760  37.1628020  48.6226400  66.4687710  37.0422950
  52.0542080  68.3280560  52.4507540  52.7951550  68.6656320  51.9475000
  51.2914760  68.4972620  51.8977310  39.8903870  63.3333830  53.2547070
  39.9309210  63.0347700  54.1632300  40.7449370  63.7341440  53.0954590
  43.6682260  65.9329380  38.4150580  44.0898680  65.7669250  39.2581970
  43.7933100  65.1229610  37.9205720  41.8309680  61.9125930  51.2221560
  41.3006140  61.4216880  50.5944900  42.4997750  62.3410130  50.6879490
  46.1809900  64.9566990  35.6627680  46.7015560  64.2416010  35.2968830
  46.8278300  65.5952860  35.9628190  50.7287740  66.3795390  50.9862750
  51.1428760  66.5340470  51.8353170  49.7938740  66.5050610  51.1488530
  51.2009910  63.7191550  52.9901900  51.7830680  62.9643870  52.9022380
  51.3771680  64.2498990  52.2133380  42.3181980  58.8788300  51.3018850
  42.2238850  58.2609050  50.5769720  41.7379370  59.6054590  51.0748760
  45.0843420  57.4361540  48.3346240  44.6360720  57.4585800  47.4891790
  44.4508620  57.0380560  48.9316540  45.4902970  66.3315870  48.9558680
  45.9091080  67.1748600  48.7834920  44.5711600  66.4687910  48.7265460
  47.8266870  64.0632050  50.3396520  47.9463080  63.4673190  51.0791360
  48.6860870  64.1001740  49.9197820  50.1654770  64.6169240  48.9159030
  49.6389990  65.1411860  48.3124170  50.5086110  65.2496630  49.5468760
  42.5641160  62.0062610  35.3608740  42.3630220  61.1429970  35.7222080
  42.3933210  61.9195970  34.4230340  44.5935640  60.6053400  51.5972340
  45.1835330  60.2969250  52.2850160  43.7755880  60.1333150  51.7532240
  49.4129070  60.2219210  51.8305360  48.7244590  59.5600750  51.7655350
  50.1335090  59.7757480  52.2753820  50.0429470  56.8170840  37.8895620
  50.3231760  55.9738740  38.2455040  49.2695200  57.0493950  38.4034370
  41.3623960  59.1063230  35.3486620  41.6649860  59.1130660  34.4405770
  42.1018550  58.7561090  35.8454280  44.5808890  58.0497850  36.3342820
  44.2330890  57.3721840  35.7545270  44.7821660  57.5887360  37.1486210
  40.3854090  68.4105650  36.1816420  40.8228960  68.9535320  36.8374000
  40.8701820  67.5852600  36.1912760  37.5999890  71.1994680  43.6336680
  37.9302900  70.3315740  43.4015320  38.0290890  71.4053200  44.4641640
  42.1961810  69.5303690  41.2938650  41.8957350  69.4068660  42.1942560
  42.0899300  68.6712280  40.8854380  53.7252280  71.5682270  50.6595620
  53.1254270  71.6274830  49.9159540  53.8546180  70.6287250  50.7892470
  54.9653730  69.3100090  35.9965330  54.1346690  69.3776740  36.4672560
  55.1425560  70.2004210  35.6932190  54.4210190  66.0547570  38.4999530
  55.1829100  66.6244220  38.6059220  54.4364560  65.4874770  39.2707840
  37.9214530  64.5785500  42.7307190  37.2663370  64.3097140  42.0866890
  38.7592480  64.4689980  42.2809170  55.4270160  66.9097670  43.3441460
  55.7978990  66.1264990  42.9377430  56.0672090  67.5986770  43.1658760
  52.4103920  68.2934250  48.7571780  51.5963760  68.7231410  49.0197570
  52.8178120  68.9052660  48.1440830  54.4729360  66.3481940  35.6572050
  54.7478200  67.2560820  35.5291270  54.2840100  66.2844470  36.5934040
  50.8704970  59.3726790  36.9525680  51.2889850  59.1857770  36.1122340
  50.5641030  58.5205840  37.2628610  54.3694700  64.2850930  40.6501480
  53.9938300  63.5178860  40.2182770  53.6397820  64.6673630  41.1376410
  38.9590460  64.9638070  47.2710530  39.3263500  64.8765470  48.1506550
  38.3901280  64.2004620  47.1717390  53.7594320  63.4322450  50.2841000
  53.5280410  63.2035200  49.3838950  54.0198870  64.3522000  50.2385890
  38.5106460  61.8747160  51.1768950  37.6162510  61.8413920  51.5162660
  39.0504010  62.0733950  51.9420200  52.1982390  58.6578880  53.0620700
  53.0752570  58.6662280  53.4454700  52.2103230  57.9209720  52.4513050
  37.1352610  61.7884430  38.6732520  36.2316690  62.0514630  38.4984180
  37.6193230  62.0595600  37.8932480  53.6445660  62.5108420  43.9508720
  54.1683140  62.0171070  43.3198890  54.2305080  62.6458780  44.6956290
  53.8235380  62.5948290  47.4728270  52.8738090  62.5611830  47.5873260
  54.0048390  63.5048400  47.2378040  39.6779820  60.8449970  36.5826900
  40.3871520  60.4233190  36.0974180  38.9619760  60.9125200  35.9510250
  39.3253980  56.8989300  35.6229550  40.0482110  57.4398240  35.9410770
  39.5978500  56.6252720  34.7471090  53.1345630  61.7681770  39.8901130
  53.6304750  61.5352640  40.6750010  52.9361700  60.9293610  39.4738770
  39.0146170  56.1495490  45.5252170  39.6622360  55.5992870  45.0847330
  39.4348010  56.4038640  46.3467980  54.5632790  60.4042720  42.4238810
  54.4532070  60.2498760  43.3621080  55.3240380  59.8763660  42.1814220
  52.9098510  56.3436850  48.8821810  53.5470730  56.9570990  49.2481000
  53.0573400  56.3797510  47.9371040  55.4523060  58.2350640  35.6644950
  56.3772370  58.1031820  35.4563240  55.4298850  58.3143460  36.6181400
  55.5261550  59.0061300  38.2901660  54.7313050  58.9406420  38.8194570
  55.7304830  59.9411940  38.2787010  38.7678170  56.3051160  48.2677490
  38.4192990  56.7614980  49.0335670  38.4365870  55.4108290  48.3499920
  40.3742540  69.4770760  52.4330680  40.3312170  69.1063670  53.3145140
  40.5053550  70.4148330  52.5732500  44.0748570  71.0330350  48.0340400
  43.8339930  71.3004910  47.1470920  45.0151210  71.2036080  48.0891260
  46.2802990  57.4963040  51.7896910  46.2191880  58.0884870  52.5392320
  47.2203370  57.3889000  51.6447170  48.9177550  57.1533100  51.4289200
  49.5317960  57.4712390  50.7670280  49.4627110  56.6681690  52.0485060
  39.4398810  55.8327360  51.5428260  39.9881800  55.6515410  50.7794370
  39.5054120  55.0421470  52.0784570  49.6585590  55.7165240  47.7558490
  48.7845430  56.0500350  47.5531420  49.5496340  55.2438420  48.5810360
  50.5657570  57.9236110  49.1400210  50.2370930  57.1087870  48.7601940
  51.5139870  57.8805920  49.0165900  39.8442800  69.7891390  48.5036500
  39.1176860  69.1696680  48.4362450  39.9051950  70.1832000  47.6334580
  47.4060410  56.6335080  46.6951400  46.6232200  57.1080580  46.9748160
  47.1123340  55.7289910  46.5864580  51.9581480  57.3358180  44.7400490
  52.3989570  57.2803280  43.8922090  51.6889070  58.2516190  44.8110670
  53.8220050  56.9673420  42.7509310  53.7608450  56.0234640  42.6040330
  54.6012080  57.0753510  43.2962770  38.7500820  56.9382560  39.2165120
  39.5080180  57.0511440  38.6429150  38.2877990  57.7751760  39.1708550
  45.2914630  59.0521830  42.2067430  44.4789140  58.6778720  41.8663310
  45.7956270  58.2966910  42.5088620  49.7939610  55.7164280  43.4450500
  50.3968980  56.2884490  43.9199020  49.0532600  56.2803720  43.2224400
  52.9374210  56.1185840  38.7190780  53.1324840  57.0169290  38.9858210
  52.1504080  55.8872920  39.2123730  41.1225970  57.4646610  37.7567090
  41.6518730  56.6776410  37.6275040  41.7554290  58.1437800  37.9902620
  43.3163810  57.2021750  40.8112480  42.6866550  56.5009060  40.9782610
  42.7768950  57.9625880  40.5945640  43.4419370  56.4805730  53.2464970
  43.1603640  56.9839330  52.4825790  43.8239070  55.6827480  52.8807100
  41.4943260  69.8646120  38.0378980  40.8652140  70.3331220  38.5864810
  41.6091090  69.0195340  38.4725170  50.0434830  55.8959310  53.8245440
  49.9300280  56.2153920  54.7196960  50.8604570  56.2971820  53.5282720
  48.9492980  63.9151780  24.1880180  48.8687030  63.0006390  23.9171890
  48.5357400  64.4118850  23.4819890  47.0811020  65.6930800  26.0689450
  46.3053120  65.2131240  26.3588020  47.7323950  65.0136450  25.8945610
  41.0976850  66.0050610  26.9465210  40.2661730  65.7499320  27.3461720
  41.7057830  66.0761380  27.6823130  51.1018450  70.0990990  24.8488580
  50.6399980  69.3278230  25.1775750  51.9144000  70.1257060  25.3541030
  41.0778110  70.0390700  27.1423230  41.3806150  69.1488440  26.9633450
  41.8221700  70.5960920  26.9145480  39.5068800  60.9652500  20.7307600
  38.6185500  61.3068470  20.6287480  39.7909990  60.7652820  19.8388430
  37.4701810  63.5658150  26.6147300  38.0417920  62.7980350  26.6150940
  37.4703350  63.8646910  25.7053910  46.5220010  68.3687990  26.0759610
  46.4528290  67.4277930  25.9148740  47.2839870  68.4589400  26.6482180
  38.7126680  58.9742510  28.4016230  38.5329520  58.0768260  28.6818990
  38.3106760  59.5214380  29.0763180  47.5525180  61.1758370  26.3028540
  47.9290000  60.3030250  26.1902210  47.4544690  61.5117070  25.4118980
  41.6830190  59.5484000  21.7645980  41.7896940  60.4487730  22.0714740
  40.7722550  59.5001970  21.4740630  51.3349300  58.6708810  23.2356880
  52.1558920  58.1805380  23.2782360  51.3683380  59.2606470  23.9888720
  39.3313350  61.4703010  27.0098570  40.0123460  61.7341380  27.6285970
  39.0161400  60.6303880  27.3436580  43.5237920  62.5170370  26.0971160
  44.0316140  63.0151340  26.7376180  44.0551160  61.7405570  25.9210520
  55.6248850  60.6875560  29.8000510  54.9201020  61.0757270  29.2815620
  55.8906770  61.3825850  30.4021440  41.8074020  57.1568930  30.3634580
  41.8092460  57.6741320  29.5580480  40.9778330  56.6799110  30.3404510
  48.1945110  67.2688240  21.8624480  47.5762380  67.7337690  21.2987200
  48.7068360  67.9615720  22.2793990  43.0576870  66.7964110  28.5408080
  42.7246250  67.4233030  29.1829150  43.2343550  67.3225990  27.7609750
  51.5710780  60.6109190  26.0084420  50.8666350  60.8994080  26.5887530
  51.9322940  61.4209300  25.6483980  41.4889350  58.8678890  28.3705030
  41.8306160  59.7120940  28.0758900  40.5505160  59.0162630  28.4870370
  42.2695970  68.7644910  30.3557260  42.8869970  69.4395990  30.0741710
  41.4089090  69.1732890  30.2644760  37.5628310  67.9544770  19.2364110
  37.1856290  68.4431870  18.5049010  37.8201380  68.6270050  19.8670640
  53.1873560  70.2284320  28.2711900  52.5037080  70.8983430  28.2628570
  53.7267850  70.4264970  27.5056760  54.6397700  60.0563980  26.3993630
  53.6922610  60.0902960  26.5309060  54.9647690  60.8702930  26.7842990
  45.1717240  56.3561160  24.6949620  45.4792220  55.8008050  23.9785120
  44.2417940  56.4905620  24.5122610  52.0177720  68.7944670  22.0747250
  51.9074050  67.8519000  22.1996670  52.0145970  69.1560310  22.9610010
  50.1217740  66.9758290  28.3139690  50.5386530  66.7618400  27.4793150
  50.8457560  67.2331080  28.8848310  47.5598000  64.4209990  21.4309740
  46.6327280  64.3547370  21.6598210  47.7122820  65.3590120  21.3164980
  47.5467080  60.6926990  18.4276900  46.6070750  60.8540950  18.5129360
  47.8650340  61.4112670  17.8812890  54.0679840  65.3745510  28.4055930
  53.2398470  65.4438600  27.9306060  54.6630320  65.9599820  27.9371760
  51.5895290  65.9830290  21.9344990  50.9707710  65.6449840  21.2871290
  51.5719740  65.3390050  22.6424180  51.0321850  62.1614830  29.3510800
  50.6193030  62.9868540  29.6050790  50.2997800  61.5759870  29.1587160
  43.1654640  64.9474730  24.2129470  42.7611640  64.2351980  23.7175370
  43.2517760  64.6027970  25.1017510  43.6336340  68.6342290  26.3768680
  43.3364630  68.0287760  25.6976460  44.5836160  68.6719600  26.2658040
  41.8783260  61.7217940  27.9928510  42.4297850  61.8313280  27.2181760
  42.3926770  62.0955540  28.7083740  42.7254770  68.3723980  33.0276480
  41.8283300  68.5963950  33.2749880  42.7507640  68.4958920  32.0787880
  49.7659990  65.2217100  18.9417740  50.2053270  64.3839530  18.7955560
  50.4788410  65.8546500  19.0281880  41.5525990  65.2437300  31.6033850
  41.4133760  66.1160100  31.9721250  40.6707350  64.9010110  31.4581790
  47.8755370  70.1613170  22.9098980  48.3151280  70.9037500  22.4954370
  47.8142260  70.4039740  23.8337940  43.3506340  71.1859000  33.8119000
  43.3221770  71.5901950  32.9447430  43.1871310  70.2569360  33.6490600
  53.3477130  56.4759910  17.2558780  53.0349790  56.5686740  18.1557850
  54.1089600  57.0540940  17.2056210  39.8659270  63.8419710  21.7136120
  39.7456870  64.5681800  21.1017390  39.5560160  63.0722620  21.2364030
  37.5044640  67.0134850  27.5204760  37.5825060  67.1483620  26.5760480
  38.1186320  66.3050740  27.7132880  38.7492270  68.7135040  23.9310940
  38.3420350  68.8549630  23.0764540  39.6405280  68.4295200  23.7282150
  54.7054410  69.1598950  32.2683180  54.8317470  68.9210830  31.3500360
  54.7475790  68.3283490  32.7405260  50.2451680  70.6569850  18.8259990
  49.5516840  70.6547140  18.1662270  50.9874540  70.2329170  18.3954160
  54.5578420  61.2131410  33.2332920  53.9422690  61.7211080  32.7048380
  54.2374840  60.3129740  33.1758860  37.5604160  68.0549020  30.0599220
  37.7235200  67.5854380  29.2418590  38.0256610  67.5472580  30.7248060
  42.3322930  57.1854780  25.0959790  41.8891080  57.9664320  24.7644310
  42.8907920  57.5084670  25.8030730  46.6192740  60.0523300  30.6995110
  46.1572110  60.2606320  31.5115050  46.2170850  59.2382650  30.3965780
  51.6197250  61.2732250  31.8291770  50.7690840  60.9738000  32.1500840
  51.4599040  61.5174260  30.9175590  48.7146960  62.7734000  33.9290560
  49.0400370  61.9397750  33.5892790  49.5027290  63.2962520  34.0768890
  45.4481750  56.8065480  19.9765620  44.8235930  56.8025350  20.7018930
  45.3611870  55.9396440  19.5801590  44.3698830  57.7302110  26.9549390
  44.6671160  58.6364940  26.8741410  44.9184390  57.2420890  26.3408960
  42.1237150  62.3088350  22.8241040  41.8978070  62.0925520  23.7287660
  41.3429680  62.7416810  22.4787010  49.3534910  62.3151720  21.4231690
  48.7543800  63.0387520  21.2395310  49.9014520  62.2528500  20.6408140
  44.5636360  63.2073930  33.4901310  44.4679960  62.2668660  33.3401710
  45.4068340  63.4289000  33.0949380  47.9599780  60.9515260  23.4534970
  48.3529350  61.2687460  22.6403660  48.3216630  60.0727140  23.5679490
  39.6946900  59.6187600  31.6435090  39.3010290  60.4662810  31.8507870
  39.0065300  58.9813970  31.8343730  46.2691950  59.7022570  34.7131830
  45.5790270  59.5094770  35.3477920  47.0124250  59.9857210  35.2456130
  36.9963950  57.5416060  25.6765170  36.7077000  58.1118920  26.3890150
  37.7409710  57.0620510  26.0396400  37.1834180  61.4836180  16.8867890
  37.1008850  62.4266940  17.0282880  36.8317240  61.3411090  16.0080240
  48.5454920  63.5421010  27.5485750  47.8136040  64.0507820  27.8975850
  48.1479260  62.7250990  27.2474530  44.9832310  60.2175210  25.9538240
  44.9868370  59.7765160  25.1042780  45.8783430  60.5392540  26.0610060
  40.8334690  60.1001700  24.9132450  40.4934740  60.5776930  25.6699500
  40.0712010  59.6466820  24.5533550  45.0452460  61.2187290  18.9445000
  45.1665280  61.1773770  19.8930820  44.6600970  62.0811440  18.7891730
  49.0080830  58.9954690  26.9608690  49.0253570  59.4463340  27.8050540
  48.7596410  58.0960330  27.1742130  44.0573960  63.5288430  18.3428300
  43.4890860  63.0806680  17.7164210  44.7662960  63.8881210  17.8093450
  52.4351580  56.4086870  32.7995070  52.7597350  55.6776530  33.3253050
  52.4708090  56.0900510  31.8976060  39.1343140  67.4300450  32.2195030
  38.7497930  66.7894120  32.8177990  39.4455330  68.1336570  32.7889760
  45.2840280  64.2776990  27.7003650  45.6510410  63.8035560  28.4464990
  45.0945340  65.1518560  28.0411990  38.1480770  59.0220680  23.8297120
  37.8627690  58.6576350  24.6675740  38.0859630  58.2901140  23.2160260
  43.0739650  63.3185630  30.0187860  42.7696720  64.1977610  30.2438220
  44.0286110  63.3785420  30.0545300  41.6021440  67.5246620  20.6154710
  40.8283700  66.9844240  20.4553430  42.3316070  67.0053230  20.2772470
  52.3609420  66.5211980  26.4081100  53.0808540  67.0167270  26.0177210
  52.1591240  65.8429870  25.7634970  47.8219360  57.9149940  20.5510490
  47.0083970  57.4163110  20.4755800  47.6281310  58.7548190  20.1346840
  47.7428220  66.5921040  32.2950100  47.6765530  65.6716710  32.0407690
  47.1133360  66.6896480  33.0094740  50.5367750  62.2869590  18.8472650
  51.4247370  62.5986820  18.6723990  50.5072840  61.4141840  18.4553230
  41.6458840  67.1927000  24.2533520  42.1637510  66.3895260  24.1990410
  41.1942860  67.1306140  25.0950350  46.5328340  68.4593280  19.5260820
  46.8744040  69.2035510  19.0304140  45.7041050  68.7724400  19.8885650
  39.1303380  64.1588370  31.1659220  38.7718320  64.8242220  31.7532560
  38.8357940  63.3271920  31.5371840  42.3316500  64.6172610  34.0498770
  42.0316640  64.7629790  33.1526590  43.1027740  64.0577900  33.9572160
  47.6744950  69.4141610  32.0453900  47.6889490  68.4822570  31.8272810
  46.9670050  69.5001370  32.6843670  52.8082020  63.5981430  18.3152510
  52.7245740  64.0295650  17.4648950  53.5276210  64.0579780  18.7479330
  53.8856160  66.0548950  31.3922480  53.1604350  66.6477730  31.1951870
  54.4131620  66.0472490  30.5935850  53.8369270  70.4523690  21.0434640
  53.1945430  69.7979310  21.3178360  53.4499930  70.8578780  20.2675310
  49.4155750  67.7809120  24.8906330  49.7679570  67.1837250  24.2307700
  48.5318080  67.4553350  25.0614580  45.5019030  68.5406810  22.2976740
  46.1890160  69.0876020  22.6784330  44.7151450  69.0847540  22.3326350
  37.6411430  64.1579630  17.7893820  38.5106280  64.4404430  18.0729740
  37.1501750  64.9715500  17.6742630  44.8046240  65.5452840  21.9102100
  45.2609020  66.3558090  22.1362290  44.4534450  65.2275980  22.7420590
  47.1078850  71.0559180  29.1394400  47.7521070  71.2618560  29.8167820
  47.4708290  70.2947580  28.6865250  40.7058020  55.8890490  22.3824620
  40.5772650  55.8808390  23.3309540  39.8820040  56.2273580  22.0315630
  48.3810930  69.0591530  27.8571850  49.0233160  68.3584690  27.9704020
  48.9060280  69.8389970  27.6768740  52.2266650  69.3440150  17.5810990
  52.0004230  68.6270590  18.1735630  51.8362850  69.0952590  16.7432740
  50.1548550  69.8586430  31.0607910  50.4904790  70.4453120  31.7385830
  49.2348890  69.7279140  31.2905700  37.7051950  57.6481610  31.8431320
  36.9910470  57.8478530  32.4483930  38.1246990  56.8721180  32.2146120
  51.8082900  67.2612090  19.2425150  51.5204600  67.7224780  20.0303030
  52.6035070  66.8009860  19.5109370  45.9837130  69.9077760  34.2295970
  45.6634000  69.1887000  34.7741660  45.3095490  70.5832830  34.3032030
  44.0251300  70.7538210  19.1729120  44.0161400  71.4867900  18.5573630
  43.1049660  70.5069790  19.2656080  39.6257940  65.9753100  19.9175880
  39.0185890  66.7152000  19.9271180  40.1007290  66.0652460  19.0914080
  49.1990730  60.1403920  29.5932770  49.5671550  59.3199130  29.9212340
  48.3388930  60.2005810  30.0088420  52.5652760  59.0960860  20.4020330
  51.9365920  59.2006530  19.6878560  52.0704680  59.3157640  21.1914210
  47.0110900  70.8166450  17.8354310  47.1122880  70.6130440  16.9056290
  46.1112640  70.5624730  18.0402090  44.5336790  61.3746810  21.8178210
  43.8252940  61.8433150  22.2591820  44.8181270  60.7168820  22.4523400
  46.1592720  62.7943510  29.8170740  46.6577970  63.2689330  30.4822590
  46.3015670  61.8707030  30.0240770  48.5652220  58.0997470  23.2574000
  48.4420000  58.1183600  22.3083510  49.5136780  58.1476410  23.3772400
  42.7371810  59.6831890  19.1928920  43.5862340  60.1202040  19.1269110
  42.3703080  59.9952150  20.0200980  53.3659580  59.0111470  30.6599130
  52.8633180  59.7516870  30.9992940  54.1816240  59.3995470  30.3435920
  51.6581590  64.2544650  24.1060490  50.7171730  64.2694880  24.2808180
  51.9725660  63.4680610  24.5520790  41.6363230  65.9364250  17.6664450
  42.4026500  65.8245610  18.2289880  41.7137920  65.2402220  17.0141220
  40.3309990  63.3689320  18.3497340  40.4113580  62.4216830  18.4614740
  41.2229740  63.6996200  18.4558000  38.0170180  69.5858280  21.3273390
  37.0909960  69.8279420  21.3178800  38.4826610  70.4132540  21.2058140
  48.9747610  68.8110650  34.5892870  48.3685770  68.8342250  33.8488620
  48.6701720  68.0793690  35.1260120  37.8580790  65.1904240  33.5853510
  38.3619810  64.6111520  34.1569740  37.1188210  65.4744470  34.1229880
  44.7604410  67.9118430  17.1399800  44.6555050  67.2970780  17.8661180
  44.5928630  67.3884320  16.3562810  44.9118730  66.5975230  33.1189030
  44.1464400  67.1660230  33.0343700  45.0934690  66.3051440  32.2257260
  48.0007140  66.9738460  17.7441790  47.4517240  67.4207760  18.3884530
  48.6226400  66.4687710  18.2679460  52.0542080  68.3280560  33.6764050
  52.7951550  68.6656320  33.1731510  51.2914760  68.4972620  33.1233820
  39.8903870  63.3333830  34.4803580  39.9309210  63.0347700  35.3888810
  40.7449370  63.7341440  34.3211100  43.6682260  65.9329380  19.6407090
  44.0898680  65.7669250  20.4838480  43.7933100  65.1229610  19.1462230
  41.8309680  61.9125930  32.4478070  41.3006140  61.4216880  31.8201410
  42.4997750  62.3410130  31.9136000  46.1809900  64.9566990  16.8884190
  46.7015560  64.2416010  16.5225340  46.8278300  65.5952860  17.1884700
  50.7287740  66.3795390  32.2119260  51.1428760  66.5340470  33.0609680
  49.7938740  66.5050610  32.3745040  51.2009910  63.7191550  34.2158410
  51.7830680  62.9643870  34.1278890  51.3771680  64.2498990  33.4389890
  42.3181980  58.8788300  32.5275360  42.2238850  58.2609050  31.8026230
  41.7379370  59.6054590  32.3005270  45.0843420  57.4361540  29.5602750
  44.6360720  57.4585800  28.7148300  44.4508620  57.0380560  30.1573050
  45.4902970  66.3315870  30.1815190  45.9091080  67.1748600  30.0091430
  44.5711600  66.4687910  29.9521970  47.8266870  64.0632050  31.5653030
  47.9463080  63.4673190  32.3047870  48.6860870  64.1001740  31.1454330
  50.1654770  64.6169240  30.1415540  49.6389990  65.1411860  29.5380680
  50.5086110  65.2496630  30.7725270  42.5641160  62.0062610  16.5865250
  42.3630220  61.1429970  16.9478590  42.3933210  61.9195970  15.6486850
  44.5935640  60.6053400  32.8228850  45.1835330  60.2969250  33.5106670
  43.7755880  60.1333150  32.9788750  49.4129070  60.2219210  33.0561870
  48.7244590  59.5600750  32.9911860  50.1335090  59.7757480  33.5010330
  50.0429470  56.8170840  19.1152130  50.3231760  55.9738740  19.4711550
  49.2695200  57.0493950  19.6290880  41.3623960  59.1063230  16.5743130
  41.6649860  59.1130660  15.6662280  42.1018550  58.7561090  17.0710790
  44.5808890  58.0497850  17.5599330  44.2330890  57.3721840  16.9801780
  44.7821660  57.5887360  18.3742720  40.3854090  68.4105650  17.4072930
  40.8228960  68.9535320  18.0630510  40.8701820  67.5852600  17.4169270
  37.5999890  71.1994680  24.8593190  37.9302900  70.3315740  24.6271830
  38.0290890  71.4053200  25.6898150  42.1961810  69.5303690  22.5195160
  41.8957350  69.4068660  23.4199070  42.0899300  68.6712280  22.1110890
  53.7252280  71.5682270  31.8852130  53.1254270  71.6274830  31.1416050
  53.8546180  70.6287250  32.0148980  54.9653730  69.3100090  17.2221840
  54.1346690  69.3776740  17.6929070  55.1425560  70.2004210  16.9188700
  54.4210190  66.0547570  19.7256040  55.1829100  66.6244220  19.8315730
  54.4364560  65.4874770  20.4964350  37.9214530  64.5785500  23.9563700
  37.2663370  64.3097140  23.3123400  38.7592480  64.4689980  23.5065680
  55.4270160  66.9097670  24.5697970  55.7978990  66.1264990  24.1633940
  56.0672090  67.5986770  24.3915270  52.4103920  68.2934250  29.9828290
  51.5963760  68.7231410  30.2454080  52.8178120  68.9052660  29.3697340
  54.4729360  66.3481940  16.8828560  54.7478200  67.2560820  16.7547780
  54.2840100  66.2844470  17.8190550  50.8704970  59.3726790  18.1782190
  51.2889850  59.1857770  17.3378850  50.5641030  58.5205840  18.4885120
  54.3694700  64.2850930  21.8757990  53.9938300  63.5178860  21.4439280
  53.6397820  64.6673630  22.3632920  38.9590460  64.9638070  28.4967040
  39.3263500  64.8765470  29.3763060  38.3901280  64.2004620  28.3973900
  53.7594320  63.4322450  31.5097510  53.5280410  63.2035200  30.6095460
  54.0198870  64.3522000  31.4642400  38.5106460  61.8747160  32.4025460
  37.6162510  61.8413920  32.7419170  39.0504010  62.0733950  33.1676710
  52.1982390  58.6578880  34.2877210  53.0752570  58.6662280  34.6711210
  52.2103230  57.9209720  33.6769560  37.1352610  61.7884430  19.8989030
  36.2316690  62.0514630  19.7240690  37.6193230  62.0595600  19.1188990
  53.6445660  62.5108420  25.1765230  54.1683140  62.0171070  24.5455400
  54.2305080  62.6458780  25.9212800  53.8235380  62.5948290  28.6984780
  52.8738090  62.5611830  28.8129770  54.0048390  63.5048400  28.4634550
  39.6779820  60.8449970  17.8083410  40.3871520  60.4233190  17.3230690
  38.9619760  60.9125200  17.1766760  39.3253980  56.8989300  16.8486060
  40.0482110  57.4398240  17.1667280  39.5978500  56.6252720  15.9727600
  53.1345630  61.7681770  21.1157640  53.6304750  61.5352640  21.9006520
  52.9361700  60.9293610  20.6995280  39.0146170  56.1495490  26.7508680
  39.6622360  55.5992870  26.3103840  39.4348010  56.4038640  27.5724490
  54.5632790  60.4042720  23.6495320  54.4532070  60.2498760  24.5877590
  55.3240380  59.8763660  23.4070730  52.9098510  56.3436850  30.1078320
  53.5470730  56.9570990  30.4737510  53.0573400  56.3797510  29.1627550
  55.4523060  58.2350640  16.8901460  56.3772370  58.1031820  16.6819750
  55.4298850  58.3143460  17.8437910  55.5261550  59.0061300  19.5158170
  54.7313050  58.9406420  20.0451080  55.7304830  59.9411940  19.5043520
  38.7678170  56.3051160  29.4934000  38.4192990  56.7614980  30.2592180
  38.4365870  55.4108290  29.5756430  40.3742540  69.4770760  33.6587190
  40.3312170  69.1063670  34.5401650  40.5053550  70.4148330  33.7989010
  44.0748570  71.0330350  29.2596910  43.8339930  71.3004910  28.3727430
  45.0151210  71.2036080  29.3147770  46.2802990  57.4963040  33.0153420
  46.2191880  58.0884870  33.7648830  47.2203370  57.3889000  32.8703680
  48.9177550  57.1533100  32.6545710  49.5317960  57.4712390  31.9926790
  49.4627110  56.6681690  33.2741570  39.4398810  55.8327360  32.7684770
  39.9881800  55.6515410  32.0050880  39.5054120  55.0421470  33.3041080
  49.6585590  55.7165240  28.9815000  48.7845430  56.0500350  28.7787930
  49.5496340  55.2438420  29.8066870  50.5657570  57.9236110  30.3656720
  50.2370930  57.1087870  29.9858450  51.5139870  57.8805920  30.2422410
  39.8442800  69.7891390  29.7293010  39.1176860  69.1696680  29.6618960
  39.9051950  70.1832000  28.8591090  47.4060410  56.6335080  27.9207910
  46.6232200  57.1080580  28.2004670  47.1123340  55.7289910  27.8121090
  51.9581480  57.3358180  25.9657000  52.3989570  57.2803280  25.1178600
  51.6889070  58.2516190  26.0367180  53.8220050  56.9673420  23.9765820
  53.7608450  56.0234640  23.8296840  54.6012080  57.0753510  24.5219280
  38.7500820  56.9382560  20.4421630  39.5080180  57.0511440  19.8685660
  38.2877990  57.7751760  20.3965060  45.2914630  59.0521830  23.4323940
  44.4789140  58.6778720  23.0919820  45.7956270  58.2966910  23.7345130
  49.7939610  55.7164280  24.6707010  50.3968980  56.2884490  25.1455530
  49.0532600  56.2803720  24.4480910  52.9374210  56.1185840  19.9447290
  53.1324840  57.0169290  20.2114720  52.1504080  55.8872920  20.4380240
  41.1225970  57.4646610  18.9823600  41.6518730  56.6776410  18.8531550
  41.7554290  58.1437800  19.2159130  43.3163810  57.2021750  22.0368990
  42.6866550  56.5009060  22.2039120  42.7768950  57.9625880  21.8202150
  43.4419370  56.4805730  34.4721480  43.1603640  56.9839330  33.7082300
  43.8239070  55.6827480  34.1063610  41.4943260  69.8646120  19.2635490
  40.8652140  70.3331220  19.8121320  41.6091090  69.0195340  19.6981680
  50.0434830  55.8959310  35.0501950  49.9300280  56.2153920  35.9453470
  50.8604570  56.2971820  34.7539230  48.9492980  63.9151780   5.4136690
  48.8687030  63.0006390   5.1428400  48.5357400  64.4118850   4.7076400
  47.0811020  65.6930800   7.2945960  46.3053120  65.2131240   7.5844530
  47.7323950  65.0136450   7.1202120  41.0976850  66.0050610   8.1721720
  40.2661730  65.7499320   8.5718230  41.7057830  66.0761380   8.9079640
  51.1018450  70.0990990   6.0745090  50.6399980  69.3278230   6.4032260
  51.9144000  70.1257060   6.5797540  41.0778110  70.0390700   8.3679740
  41.3806150  69.1488440   8.1889960  41.8221700  70.5960920   8.1401990
  37.4701810  63.5658150   7.8403810  38.0417920  62.7980350   7.8407450
  37.4703350  63.8646910   6.9310420  46.5220010  68.3687990   7.3016120
  46.4528290  67.4277930   7.1405250  47.2839870  68.4589400   7.8738690
  38.7126680  58.9742510   9.6272740  38.5329520  58.0768260   9.9075500
  38.3106760  59.5214380  10.3019690  47.5525180  61.1758370   7.5285050
  47.9290000  60.3030250   7.4158720  47.4544690  61.5117070   6.6375490
  41.6830190  59.5484000   2.9902490  41.7896940  60.4487730   3.2971250
  40.7722550  59.5001970   2.6997140  51.3349300  58.6708810   4.4613390
  52.1558920  58.1805380   4.5038870  51.3683380  59.2606470   5.2145230
  39.3313350  61.4703010   8.2355080  40.0123460  61.7341380   8.8542480
  39.0161400  60.6303880   8.5693090  43.5237920  62.5170370   7.3227670
  44.0316140  63.0151340   7.9632690  44.0551160  61.7405570   7.1467030
  55.6248850  60.6875560  11.0257020  54.9201020  61.0757270  10.5072130
  55.8906770  61.3825850  11.6277950  41.8074020  57.1568930  11.5891090
  41.8092460  57.6741320  10.7836990  40.9778330  56.6799110  11.5661020
  48.1945110  67.2688240   3.0880990  47.5762380  67.7337690   2.5243710
  48.7068360  67.9615720   3.5050500  43.0576870  66.7964110   9.7664590
  42.7246250  67.4233030  10.4085660  43.2343550  67.3225990   8.9866260
  51.5710780  60.6109190   7.2340930  50.8666350  60.8994080   7.8144040
  51.9322940  61.4209300   6.8740490  41.4889350  58.8678890   9.5961540
  41.8306160  59.7120940   9.3015410  40.5505160  59.0162630   9.7126880
  42.2695970  68.7644910  11.5813770  42.8869970  69.4395990  11.2998220
  41.4089090  69.1732890  11.4901270  53.1873560  70.2284320   9.4968410
  52.5037080  70.8983430   9.4885080  53.7267850  70.4264970   8.7313270
  54.6397700  60.0563980   7.6250140  53.6922610  60.0902960   7.7565570
  54.9647690  60.8702930   8.0099500  45.1717240  56.3561160   5.9206130
  45.4792220  55.8008050   5.2041630  44.2417940  56.4905620   5.7379120
  52.0177720  68.7944670   3.3003760  51.9074050  67.8519000   3.4253180
  52.0145970  69.1560310   4.1866520  50.1217740  66.9758290   9.5396200
  50.5386530  66.7618400   8.7049660  50.8457560  67.2331080  10.1104820
  47.5598000  64.4209990   2.6566250  46.6327280  64.3547370   2.8854720
  47.7122820  65.3590120   2.5421490  54.0679840  65.3745510   9.6312440
  53.2398470  65.4438600   9.1562570  54.6630320  65.9599820   9.1628270
  51.5895290  65.9830290   3.1601500  50.9707710  65.6449840   2.5127800
  51.5719740  65.3390050   3.8680690  51.0321850  62.1614830  10.5767310
  50.6193030  62.9868540  10.8307300  50.2997800  61.5759870  10.3843670
  43.1654640  64.9474730   5.4385980  42.7611640  64.2351980   4.9431880
  43.2517760  64.6027970   6.3274020  43.6336340  68.6342290   7.6025190
  43.3364630  68.0287760   6.9232970  44.5836160  68.6719600   7.4914550
  41.8783260  61.7217940   9.2185020  42.4297850  61.8313280   8.4438270
  42.3926770  62.0955540   9.9340250  42.7254770  68.3723980  14.2532990
  41.8283300  68.5963950  14.5006390  42.7507640  68.4958920  13.3044390
  41.5525990  65.2437300  12.8290360  41.4133760  66.1160100  13.1977760
  40.6707350  64.9010110  12.6838300  47.8755370  70.1613170   4.1355490
  48.3151280  70.9037500   3.7210880  47.8142260  70.4039740   5.0594450
  43.3506340  71.1859000  15.0375510  43.3221770  71.5901950  14.1703940
  43.1871310  70.2569360  14.8747110  39.8659270  63.8419710   2.9392630
  39.7456870  64.5681800   2.3273900  39.5560160  63.0722620   2.4620540
  37.5044640  67.0134850   8.7461270  37.5825060  67.1483620   7.8016990
  38.1186320  66.3050740   8.9389390  38.7492270  68.7135040   5.1567450
  38.3420350  68.8549630   4.3021050  39.6405280  68.4295200   4.9538660
  54.7054410  69.1598950  13.4939690  54.8317470  68.9210830  12.5756870
  54.7475790  68.3283490  13.9661770  54.5578420  61.2131410  14.4589430
  53.9422690  61.7211080  13.9304890  54.2374840  60.3129740  14.4015370
  37.5604160  68.0549020  11.2855730  37.7235200  67.5854380  10.4675100
  38.0256610  67.5472580  11.9504570  42.3322930  57.1854780   6.3216300
  41.8891080  57.9664320   5.9900820  42.8907920  57.5084670   7.0287240
  46.6192740  60.0523300  11.9251620  46.1572110  60.2606320  12.7371560
  46.2170850  59.2382650  11.6222290  51.6197250  61.2732250  13.0548280
  50.7690840  60.9738000  13.3757350  51.4599040  61.5174260  12.1432100
  48.7146960  62.7734000  15.1547070  49.0400370  61.9397750  14.8149300
  49.5027290  63.2962520  15.3025400  44.3698830  57.7302110   8.1805900
  44.6671160  58.6364940   8.0997920  44.9184390  57.2420890   7.5665470
  42.1237150  62.3088350   4.0497550  41.8978070  62.0925520   4.9544170
  41.3429680  62.7416810   3.7043520  49.3534910  62.3151720   2.6488200
  48.7543800  63.0387520   2.4651820  49.9014520  62.2528500   1.8664650
  44.5636360  63.2073930  14.7157820  44.4679960  62.2668660  14.5658220
  45.4068340  63.4289000  14.3205890  47.9599780  60.9515260   4.6791480
  48.3529350  61.2687460   3.8660170  48.3216630  60.0727140   4.7936000
  39.6946900  59.6187600  12.8691600  39.3010290  60.4662810  13.0764380
  39.0065300  58.9813970  13.0600240  46.2691950  59.7022570  15.9388340
  45.5790270  59.5094770  16.5734430  47.0124250  59.9857210  16.4712640
  36.9963950  57.5416060   6.9021680  36.7077000  58.1118920   7.6146660
  37.7409710  57.0620510   7.2652910  48.5454920  63.5421010   8.7742260
  47.8136040  64.0507820   9.1232360  48.1479260  62.7250990   8.4731040
  44.9832310  60.2175210   7.1794750  44.9868370  59.7765160   6.3299290
  45.8783430  60.5392540   7.2866570  40.8334690  60.1001700   6.1388960
  40.4934740  60.5776930   6.8956010  40.0712010  59.6466820   5.7790060
  49.0080830  58.9954690   8.1865200  49.0253570  59.4463340   9.0307050
  48.7596410  58.0960330   8.3998640  52.4351580  56.4086870  14.0251580
  52.7597350  55.6776530  14.5509560  52.4708090  56.0900510  13.1232570
  39.1343140  67.4300450  13.4451540  38.7497930  66.7894120  14.0434500
  39.4455330  68.1336570  14.0146270  45.2840280  64.2776990   8.9260160
  45.6510410  63.8035560   9.6721500  45.0945340  65.1518560   9.2668500
  38.1480770  59.0220680   5.0553630  37.8627690  58.6576350   5.8932250
  38.0859630  58.2901140   4.4416770  43.0739650  63.3185630  11.2444370
  42.7696720  64.1977610  11.4694730  44.0286110  63.3785420  11.2801810
  41.6021440  67.5246620   1.8411220  40.8283700  66.9844240   1.6809940
  42.3316070  67.0053230   1.5028980  52.3609420  66.5211980   7.6337610
  53.0808540  67.0167270   7.2433720  52.1591240  65.8429870   6.9891480
  47.8219360  57.9149940   1.7767000  47.0083970  57.4163110   1.7012310
  47.6281310  58.7548190   1.3603350  47.7428220  66.5921040  13.5206610
  47.6765530  65.6716710  13.2664200  47.1133360  66.6896480  14.2351250
  41.6458840  67.1927000   5.4790030  42.1637510  66.3895260   5.4246920
  41.1942860  67.1306140   6.3206860  39.1303380  64.1588370  12.3915730
  38.7718320  64.8242220  12.9789070  38.8357940  63.3271920  12.7628350
  42.3316500  64.6172610  15.2755280  42.0316640  64.7629790  14.3783100
  43.1027740  64.0577900  15.1828670  47.6744950  69.4141610  13.2710410
  47.6889490  68.4822570  13.0529320  46.9670050  69.5001370  13.9100180
  53.8856160  66.0548950  12.6178990  53.1604350  66.6477730  12.4208380
  54.4131620  66.0472490  11.8192360  53.8369270  70.4523690   2.2691150
  53.1945430  69.7979310   2.5434870  53.4499930  70.8578780   1.4931820
  49.4155750  67.7809120   6.1162840  49.7679570  67.1837250   5.4564210
  48.5318080  67.4553350   6.2871090  45.5019030  68.5406810   3.5233250
  46.1890160  69.0876020   3.9040840  44.7151450  69.0847540   3.5582860
  44.8046240  65.5452840   3.1358610  45.2609020  66.3558090   3.3618800
  44.4534450  65.2275980   3.9677100  47.1078850  71.0559180  10.3650910
  47.7521070  71.2618560  11.0424330  47.4708290  70.2947580   9.9121760
  40.7058020  55.8890490   3.6081130  40.5772650  55.8808390   4.5566050
  39.8820040  56.2273580   3.2572140  48.3810930  69.0591530   9.0828360
  49.0233160  68.3584690   9.1960530  48.9060280  69.8389970   8.9025250
  50.1548550  69.8586430  12.2864420  50.4904790  70.4453120  12.9642340
  49.2348890  69.7279140  12.5162210  37.7051950  57.6481610  13.0687830
  36.9910470  57.8478530  13.6740440  38.1246990  56.8721180  13.4402630
  45.9837130  69.9077760  15.4552480  45.6634000  69.1887000  15.9998170
  45.3095490  70.5832830  15.5288540  49.1990730  60.1403920  10.8189280
  49.5671550  59.3199130  11.1468850  48.3388930  60.2005810  11.2344930
  44.5336790  61.3746810   3.0434720  43.8252940  61.8433150   3.4848330
  44.8181270  60.7168820   3.6779910  46.1592720  62.7943510  11.0427250
  46.6577970  63.2689330  11.7079100  46.3015670  61.8707030  11.2497280
  48.5652220  58.0997470   4.4830510  48.4420000  58.1183600   3.5340020
  49.5136780  58.1476410   4.6028910  53.3659580  59.0111470  11.8855640
  52.8633180  59.7516870  12.2249450  54.1816240  59.3995470  11.5692430
  51.6581590  64.2544650   5.3317000  50.7171730  64.2694880   5.5064690
  51.9725660  63.4680610   5.7777300  38.0170180  69.5858280   2.5529900
  37.0909960  69.8279420   2.5435310  38.4826610  70.4132540   2.4314650
  48.9747610  68.8110650  15.8149380  48.3685770  68.8342250  15.0745130
  48.6701720  68.0793690  16.3516630  37.8580790  65.1904240  14.8110020
  38.3619810  64.6111520  15.3826250  37.1188210  65.4744470  15.3486390
  44.9118730  66.5975230  14.3445540  44.1464400  67.1660230  14.2600210
  45.0934690  66.3051440  13.4513770  52.0542080  68.3280560  14.9020560
  52.7951550  68.6656320  14.3988020  51.2914760  68.4972620  14.3490330
  39.8903870  63.3333830  15.7060090  39.9309210  63.0347700  16.6145320
  40.7449370  63.7341440  15.5467610  41.8309680  61.9125930  13.6734580
  41.3006140  61.4216880  13.0457920  42.4997750  62.3410130  13.1392510
  50.7287740  66.3795390  13.4375770  51.1428760  66.5340470  14.2866190
  49.7938740  66.5050610  13.6001550  51.2009910  63.7191550  15.4414920
  51.7830680  62.9643870  15.3535400  51.3771680  64.2498990  14.6646400
  42.3181980  58.8788300  13.7531870  42.2238850  58.2609050  13.0282740
  41.7379370  59.6054590  13.5261780  45.0843420  57.4361540  10.7859260
  44.6360720  57.4585800   9.9404810  44.4508620  57.0380560  11.3829560
  45.4902970  66.3315870  11.4071700  45.9091080  67.1748600  11.2347940
  44.5711600  66.4687910  11.1778480  47.8266870  64.0632050  12.7909540
  47.9463080  63.4673190  13.5304380  48.6860870  64.1001740  12.3710840
  50.1654770  64.6169240  11.3672050  49.6389990  65.1411860  10.7637190
  50.5086110  65.2496630  11.9981780  44.5935640  60.6053400  14.0485360
  45.1835330  60.2969250  14.7363180  43.7755880  60.1333150  14.2045260
  49.4129070  60.2219210  14.2818380  48.7244590  59.5600750  14.2168370
  50.1335090  59.7757480  14.7266840  37.5999890  71.1994680   6.0849700
  37.9302900  70.3315740   5.8528340  38.0290890  71.4053200   6.9154660
  42.1961810  69.5303690   3.7451670  41.8957350  69.4068660   4.6455580
  42.0899300  68.6712280   3.3367400  53.7252280  71.5682270  13.1108640
  53.1254270  71.6274830  12.3672560  53.8546180  70.6287250  13.2405490
  37.9214530  64.5785500   5.1820210  37.2663370  64.3097140   4.5379910
  38.7592480  64.4689980   4.7322190  55.4270160  66.9097670   5.7954480
  55.7978990  66.1264990   5.3890450  56.0672090  67.5986770   5.6171780
  52.4103920  68.2934250  11.2084800  51.5963760  68.7231410  11.4710590
  52.8178120  68.9052660  10.5953850  54.3694700  64.2850930   3.1014500
  53.9938300  63.5178860   2.6695790  53.6397820  64.6673630   3.5889430
  38.9590460  64.9638070   9.7223550  39.3263500  64.8765470  10.6019570
  38.3901280  64.2004620   9.6230410  53.7594320  63.4322450  12.7354020
  53.5280410  63.2035200  11.8351970  54.0198870  64.3522000  12.6898910
  38.5106460  61.8747160  13.6281970  37.6162510  61.8413920  13.9675680
  39.0504010  62.0733950  14.3933220  52.1982390  58.6578880  15.5133720
  53.0752570  58.6662280  15.8967720  52.2103230  57.9209720  14.9026070
  53.6445660  62.5108420   6.4021740  54.1683140  62.0171070   5.7711910
  54.2305080  62.6458780   7.1469310  53.8235380  62.5948290   9.9241290
  52.8738090  62.5611830  10.0386280  54.0048390  63.5048400   9.6891060
  53.1345630  61.7681770   2.3414150  53.6304750  61.5352640   3.1263030
  52.9361700  60.9293610   1.9251790  39.0146170  56.1495490   7.9765190
  39.6622360  55.5992870   7.5360350  39.4348010  56.4038640   8.7981000
  54.5632790  60.4042720   4.8751830  54.4532070  60.2498760   5.8134100
  55.3240380  59.8763660   4.6327240  52.9098510  56.3436850  11.3334830
  53.5470730  56.9570990  11.6994020  53.0573400  56.3797510  10.3884060
  38.7678170  56.3051160  10.7190510  38.4192990  56.7614980  11.4848690
  38.4365870  55.4108290  10.8012940  40.3742540  69.4770760  14.8843700
  40.3312170  69.1063670  15.7658160  40.5053550  70.4148330  15.0245520
  44.0748570  71.0330350  10.4853420  43.8339930  71.3004910   9.5983940
  45.0151210  71.2036080  10.5404280  46.2802990  57.4963040  14.2409930
  46.2191880  58.0884870  14.9905340  47.2203370  57.3889000  14.0960190
  48.9177550  57.1533100  13.8802220  49.5317960  57.4712390  13.2183300
  49.4627110  56.6681690  14.4998080  39.4398810  55.8327360  13.9941280
  39.9881800  55.6515410  13.2307390  39.5054120  55.0421470  14.5297590
  49.6585590  55.7165240  10.2071510  48.7845430  56.0500350  10.0044440
  49.5496340  55.2438420  11.0323380  50.5657570  57.9236110  11.5913230
  50.2370930  57.1087870  11.2114960  51.5139870  57.8805920  11.4678920
  39.8442800  69.7891390  10.9549520  39.1176860  69.1696680  10.8875470
  39.9051950  70.1832000  10.0847600  47.4060410  56.6335080   9.1464420
  46.6232200  57.1080580   9.4261180  47.1123340  55.7289910   9.0377600
  51.9581480  57.3358180   7.1913510  52.3989570  57.2803280   6.3435110
  51.6889070  58.2516190   7.2623690  53.8220050  56.9673420   5.2022330
  53.7608450  56.0234640   5.0553350  54.6012080  57.0753510   5.7475790
  45.2914630  59.0521830   4.6580450  44.4789140  58.6778720   4.3176330
  45.7956270  58.2966910   4.9601640  49.7939610  55.7164280   5.8963520
  50.3968980  56.2884490   6.3712040  49.0532600  56.2803720   5.6737420
  43.3163810  57.2021750   3.2625500  42.6866550  56.5009060   3.4295630
  42.7768950  57.9625880   3.0458660  43.4419370  56.4805730  15.6977990
  43.1603640  56.9839330  14.9338810  43.8239070  55.6827480  15.3320120
  50.0434830  55.8959310  16.2758460  49.9300280  56.2153920  17.1709980
  50.8604570  56.2971820  15.9795740  48.9492980  45.1408290  61.7367160
  48.8687030  44.2262900  61.4658870  48.5357400  45.6375360  61.0306870
  47.0811020  46.9187310  63.6176430  46.3053120  46.4387750  63.9075000
  47.7323950  46.2392960  63.4432590  41.0976850  47.2307120  64.4952190
  40.2661730  46.9755830  64.8948700  41.7057830  47.3017890  65.2310110
  51.1018450  51.3247500  62.3975560  50.6399980  50.5534740  62.7262730
  51.9144000  51.3513570  62.9028010  41.0778110  51.2647210  64.6910210
  41.3806150  50.3744950  64.5120430  41.8221700  51.8217430  64.4632460
  39.5068800  42.1909010  58.2794580  38.6185500  42.5324980  58.1774460
  39.7909990  41.9909330  57.3875410  37.4701810  44.7914660  64.1634280
  38.0417920  44.0236860  64.1637920  37.4703350  45.0903420  63.2540890
  47.3281760  53.6105510  62.0179550  46.7093200  54.0663010  61.4473990
  48.1833540  53.7656970  61.6169250  46.5220010  49.5944500  63.6246590
  46.4528290  48.6534440  63.4635720  47.2839870  49.6845910  64.1969160
  38.7126680  40.1999020  65.9503210  38.5329520  39.3024770  66.2305970
  38.3106760  40.7470890  66.6250160  47.5525180  42.4014880  63.8515520
  47.9290000  41.5286760  63.7389190  47.4544690  42.7373580  62.9605960
  41.6830190  40.7740510  59.3132960  41.7896940  41.6744240  59.6201720
  40.7722550  40.7258480  59.0227610  51.3349300  39.8965320  60.7843860
  52.1558920  39.4061890  60.8269340  51.3683380  40.4862980  61.5375700
  39.3313350  42.6959520  64.5585550  40.0123460  42.9597890  65.1772950
  39.0161400  41.8560390  64.8923560  43.5237920  43.7426880  63.6458140
  44.0316140  44.2407850  64.2863160  44.0551160  42.9662080  63.4697500
  55.6248850  41.9132070  67.3487490  54.9201020  42.3013780  66.8302600
  55.8906770  42.6082360  67.9508420  41.8074020  38.3825440  67.9121560
  41.8092460  38.8997830  67.1067460  40.9778330  37.9055620  67.8891490
  48.1945110  48.4944750  59.4111460  47.5762380  48.9594200  58.8474180
  48.7068360  49.1872230  59.8280970  43.0576870  48.0220620  66.0895060
  42.7246250  48.6489540  66.7316130  43.2343550  48.5482500  65.3096730
  51.5710780  41.8365700  63.5571400  50.8666350  42.1250590  64.1374510
  51.9322940  42.6465810  63.1970960  41.4889350  40.0935400  65.9192010
  41.8306160  40.9377450  65.6245880  40.5505160  40.2419140  66.0357350
  42.2695970  49.9901420  67.9044240  42.8869970  50.6652500  67.6228690
  41.4089090  50.3989400  67.8131740  37.5628310  49.1801280  56.7851090
  37.1856290  49.6688380  56.0535990  37.8201380  49.8526560  57.4157620
  53.1873560  51.4540830  65.8198880  52.5037080  52.1239940  65.8115550
  53.7267850  51.6521480  65.0543740  54.6397700  41.2820490  63.9480610
  53.6922610  41.3159470  64.0796040  54.9647690  42.0959440  64.3329970
  45.1717240  37.5817670  62.2436600  45.4792220  37.0264560  61.5272100
  44.2417940  37.7162130  62.0609590  50.7232300  53.2984960  64.5344060
  50.7359460  52.8947250  63.6666320  50.1707520  54.0732250  64.4305490
  52.0177720  50.0201180  59.6234230  51.9074050  49.0775510  59.7483650
  52.0145970  50.3816820  60.5096990  50.1217740  48.2014800  65.8626670
  50.5386530  47.9874910  65.0280130  50.8457560  48.4587590  66.4335290
  47.5598000  45.6466500  58.9796720  46.6327280  45.5803880  59.2085190
  47.7122820  46.5846630  58.8651960  47.5467080  41.9183500  55.9763880
  46.6070750  42.0797460  56.0616340  47.8650340  42.6369180  55.4299870
  54.0679840  46.6002020  65.9542910  53.2398470  46.6695110  65.4793040
  54.6630320  47.1856330  65.4858740  51.5895290  47.2086800  59.4831970
  50.9707710  46.8706350  58.8358270  51.5719740  46.5646560  60.1911160
  51.0321850  43.3871340  66.8997780  50.6193030  44.2125050  67.1537770
  50.2997800  42.8016380  66.7074140  43.1654640  46.1731240  61.7616450
  42.7611640  45.4608490  61.2662350  43.2517760  45.8284480  62.6504490
  43.6336340  49.8598800  63.9255660  43.3364630  49.2544270  63.2463440
  44.5836160  49.8976110  63.8145020  41.8783260  42.9474450  65.5415490
  42.4297850  43.0569790  64.7668740  42.3926770  43.3212050  66.2570720
  51.7221950  53.4330670  67.5878760  51.2452510  54.2402860  67.3951370
  51.0383740  52.7809000  67.7404970  49.7659990  46.4473610  56.4904720
  50.2053270  45.6096040  56.3442540  50.4788410  47.0803010  56.5768860
  47.8755370  51.3869680  60.4585960  48.3151280  52.1294010  60.0441350
  47.8142260  51.6296250  61.3824920  53.3477130  37.7016420  54.8045760
  53.0349790  37.7943250  55.7044830  54.1089600  38.2797450  54.7543190
  39.8659270  45.0676220  59.2623100  39.7456870  45.7938310  58.6504370
  39.5560160  44.2979130  58.7851010  37.5044640  48.2391360  65.0691740
  37.5825060  48.3740130  64.1247460  38.1186320  47.5307250  65.2619860
  38.7492270  49.9391550  61.4797920  38.3420350  50.0806140  60.6251520
  39.6405280  49.6551710  61.2769130  50.5425550  54.3738800  57.8148970
  50.3826690  54.0841740  58.7130800  50.3772260  53.5978930  57.2794200
  43.0213930  54.1537330  59.5920590  42.8456410  53.2372870  59.3788390
  42.1669670  54.5124620  59.8318390  50.2451680  51.8826360  56.3746970
  49.5516840  51.8803650  55.7149250  50.9874540  51.4585680  55.9441140
  49.8101610  53.5089070  60.4495460  50.2658560  52.7278450  60.7634080
  50.1494130  54.2195890  60.9936640  37.5604160  49.2805530  67.6086200
  37.7235200  48.8110890  66.7905570  38.0256610  48.7729090  68.2735040
  42.3322930  38.4111290  62.6446770  41.8891080  39.1920830  62.3131290
  42.8907920  38.7341180  63.3517710  46.6192740  41.2779810  68.2482090
  46.1572110  41.4862830  69.0602030  46.2170850  40.4639160  67.9452760
  45.4481750  38.0321990  57.5252600  44.8235930  38.0281860  58.2505910
  45.3611870  37.1652950  57.1288570  44.3698830  38.9558620  64.5036370
  44.6671160  39.8621450  64.4228390  44.9184390  38.4677400  63.8895940
  42.1237150  43.5344860  60.3728020  41.8978070  43.3182030  61.2774640
  41.3429680  43.9673320  60.0273990  49.3534910  43.5408230  58.9718670
  48.7543800  44.2644030  58.7882290  49.9014520  43.4785010  58.1895120
  47.9599780  42.1771770  61.0021950  48.3529350  42.4943970  60.1890640
  48.3216630  41.2983650  61.1166470  36.9963950  38.7672570  63.2252150
  36.7077000  39.3375430  63.9377130  37.7409710  38.2877020  63.5883380
  37.1834180  42.7092690  54.4354870  37.1008850  43.6523450  54.5769860
  36.8317240  42.5667600  53.5567220  48.5454920  44.7677520  65.0972730
  47.8136040  45.2764330  65.4462830  48.1479260  43.9507500  64.7961510
  44.9832310  41.4431720  63.5025220  44.9868370  41.0021670  62.6529760
  45.8783430  41.7649050  63.6097040  40.8334690  41.3258210  62.4619430
  40.4934740  41.8033440  63.2186480  40.0712010  40.8723330  62.1020530
  45.0452460  42.4443800  56.4931980  45.1665280  42.4030280  57.4417800
  44.6600970  43.3067950  56.3378710  49.0080830  40.2211200  64.5095670
  49.0253570  40.6719850  65.3537520  48.7596410  39.3216840  64.7229110
  44.0573960  44.7544940  55.8915280  43.4890860  44.3063190  55.2651190
  44.7662960  45.1137720  55.3580430  45.2840280  45.5033500  65.2490630
  45.6510410  45.0292070  65.9951970  45.0945340  46.3775070  65.5898970
  38.1480770  40.2477190  61.3784100  37.8627690  39.8832860  62.2162720
  38.0859630  39.5157650  60.7647240  43.0739650  44.5442140  67.5674840
  42.7696720  45.4234120  67.7925200  44.0286110  44.6041930  67.6032280
  41.6021440  48.7503130  58.1641690  40.8283700  48.2100750  58.0040410
  42.3316070  48.2309740  57.8259450  52.3609420  47.7468490  63.9568080
  53.0808540  48.2423780  63.5664190  52.1591240  47.0686380  63.3121950
  47.8219360  39.1406450  58.0997470  47.0083970  38.6419620  58.0242780
  47.6281310  39.9804700  57.6833820  50.5367750  43.5126100  56.3959630
  51.4247370  43.8243330  56.2210970  50.5072840  42.6398350  56.0040210
  41.6458840  48.4183510  61.8020500  42.1637510  47.6151770  61.7477390
  41.1942860  48.3562650  62.6437330  46.5328340  49.6849790  57.0747800
  46.8744040  50.4292020  56.5791120  45.7041050  49.9980910  57.4372630
  52.8082020  44.8237940  55.8639490  52.7245740  45.2552160  55.0135930
  53.5276210  45.2836290  56.2966310  53.8856160  47.2805460  68.9409460
  53.1604350  47.8734240  68.7438850  54.4131620  47.2729000  68.1422830
  53.8369270  51.6780200  58.5921620  53.1945430  51.0235820  58.8665340
  53.4499930  52.0835290  57.8162290  49.4155750  49.0065630  62.4393310
  49.7679570  48.4093760  61.7794680  48.5318080  48.6809860  62.6101560
  45.5019030  49.7663320  59.8463720  46.1890160  50.3132530  60.2271310
  44.7151450  50.3104050  59.8813330  37.6411430  45.3836140  55.3380800
  38.5106280  45.6660940  55.6216720  37.1501750  46.1972010  55.2229610
  44.8046240  46.7709350  59.4589080  45.2609020  47.5814600  59.6849270
  44.4534450  46.4532490  60.2907570  47.1078850  52.2815690  66.6881380
  47.7521070  52.4875070  67.3654800  47.4708290  51.5204090  66.2352230
  40.7058020  37.1147000  59.9311600  40.5772650  37.1064900  60.8796520
  39.8820040  37.4530090  59.5802610  48.3810930  50.2848040  65.4058830
  49.0233160  49.5841200  65.5191000  48.9060280  51.0646480  65.2255720
  52.2266650  50.5696660  55.1297970  52.0004230  49.8527100  55.7222610
  51.8362850  50.3209100  54.2919720  38.0082680  54.5963520  55.9042430
  38.3680320  55.1952860  55.2499700  37.8675020  55.1423410  56.6777460
  51.8082900  48.4868600  56.7912130  51.5204600  48.9481290  57.5790010
  52.6035070  48.0266370  57.0596350  44.0251300  51.9794720  56.7216100
  44.0161400  52.7124410  56.1060610  43.1049660  51.7326300  56.8143060
  39.6257940  47.2009610  57.4662860  39.0185890  47.9408510  57.4758160
  40.1007290  47.2908970  56.6401060  49.1990730  41.3660430  67.1419750
  49.5671550  40.5455640  67.4699320  48.3388930  41.4262320  67.5575400
  52.5652760  40.3217370  57.9507310  51.9365920  40.4263040  57.2365540
  52.0704680  40.5414150  58.7401190  47.0110900  52.0422960  55.3841290
  47.1122880  51.8386950  54.4543270  46.1112640  51.7881240  55.5889070
  44.5336790  42.6003320  59.3665190  43.8252940  43.0689660  59.8078800
  44.8181270  41.9425330  60.0010380  46.1592720  44.0200020  67.3657720
  46.6577970  44.4945840  68.0309570  46.3015670  43.0963540  67.5727750
  48.5652220  39.3253980  60.8060980  48.4420000  39.3440110  59.8570490
  49.5136780  39.3732920  60.9259380  45.6529010  54.5609280  60.0788960
  45.9070510  54.5230670  59.1568330  44.7041490  54.4342610  60.0717210
  42.7371810  40.9088400  56.7415900  43.5862340  41.3458550  56.6756090
  42.3703080  41.2208660  57.5687960  53.3659580  40.2367980  68.2086110
  52.8633180  40.9773380  68.5479920  54.1816240  40.6251980  67.8922900
  51.6581590  45.4801160  61.6547470  50.7171730  45.4951390  61.8295160
  51.9725660  44.6937120  62.1007770  41.6363230  47.1620760  55.2151430
  42.4026500  47.0502120  55.7776860  41.7137920  46.4658730  54.5628200
  40.3309990  44.5945830  55.8984320  40.4113580  43.6473340  56.0101720
  41.2229740  44.9252710  56.0044980  53.6607170  52.6510010  63.3301730
  53.7854590  53.4741180  63.8025540  54.5272730  52.4400740  62.9825880
  41.1324700  54.7441220  63.0018860  41.8687180  54.1956680  63.2727430
  41.5165620  55.6097230  62.8624850  38.0170180  50.8114790  58.8760370
  37.0909960  51.0535930  58.8665780  38.4826610  51.6389050  58.7545120
  44.2427010  53.9171530  54.8244430  45.0355620  54.2060360  54.3726220
  43.7231360  53.4863700  54.1456910  53.2957180  53.1441660  56.2481170
  53.0098690  52.7306800  55.4335350  53.0976730  54.0729370  56.1281690
  44.7604410  49.1374940  54.6886780  44.6555050  48.5227290  55.4148160
  44.5928630  48.6140830  53.9049790  48.0007140  48.1994970  55.2928770
  47.4517240  48.6464270  55.9371510  48.6226400  47.6944220  55.8166440
  43.6682260  47.1585890  57.1894070  44.0898680  46.9925760  58.0325460
  43.7933100  46.3486120  56.6949210  46.1809900  46.1823500  54.4371170
  46.7015560  45.4672520  54.0712320  46.8278300  46.8209370  54.7371680
  45.0843420  38.6618050  67.1089730  44.6360720  38.6842310  66.2635280
  44.4508620  38.2637070  67.7060030  45.4902970  47.5572380  67.7302170
  45.9091080  48.4005110  67.5578410  44.5711600  47.6944420  67.5008950
  50.1654770  45.8425750  67.6902520  49.6389990  46.3668370  67.0867660
  50.5086110  46.4753140  68.3212250  42.5641160  43.2319120  54.1352230
  42.3630220  42.3686480  54.4965570  42.3933210  43.1452480  53.1973830
  43.3410390  53.8625390  68.8459900  42.8031480  54.5871450  68.5268600
  43.5944350  53.3855730  68.0557240  50.0429470  38.0427350  56.6639110
  50.3231760  37.1995250  57.0198530  49.2695200  38.2750460  57.1777860
  41.3623960  40.3319740  54.1230110  41.6649860  40.3387170  53.2149260
  42.1018550  39.9817600  54.6197770  44.5808890  39.2754360  55.1086310
  44.2330890  38.5978350  54.5288760  44.7821660  38.8143870  55.9229700
  46.7457930  54.2635110  56.7272910  47.6408720  54.6020080  56.7491670
  46.7775560  53.5414520  56.0997190  40.3854090  49.6362160  54.9559910
  40.8228960  50.1791830  55.6117490  40.8701820  48.8109110  54.9656250
  37.5999890  52.4251190  62.4080170  37.9302900  51.5572250  62.1758810
  38.0290890  52.6309710  63.2385130  42.1961810  50.7560200  60.0682140
  41.8957350  50.6325170  60.9686050  42.0899300  49.8968790  59.6597870
  38.0890100  53.2921780  65.1461800  37.6521090  53.4722580  65.9785950
  38.6567780  54.0496400  65.0043520  54.9653730  50.5356600  54.7708820
  54.1346690  50.6033250  55.2416050  55.1425560  51.4260720  54.4675680
  54.4210190  47.2804080  57.2743020  55.1829100  47.8500730  57.3802710
  54.4364560  46.7131280  58.0451330  37.9214530  45.8042010  61.5050680
  37.2663370  45.5353650  60.8610380  38.7592480  45.6946490  61.0552660
  55.4270160  48.1354180  62.1184950  55.7978990  47.3521500  61.7120920
  56.0672090  48.8243280  61.9402250  52.4103920  49.5190760  67.5315270
  51.5963760  49.9487920  67.7941060  52.8178120  50.1309170  66.9184320
  54.4729360  47.5738450  54.4315540  54.7478200  48.4817330  54.3034760
  54.2840100  47.5100980  55.3677530  50.8704970  40.5983300  55.7269170
  51.2889850  40.4114280  54.8865830  50.5641030  39.7462350  56.0372100
  54.3694700  45.5107440  59.4244970  53.9938300  44.7435370  58.9926260
  53.6397820  45.8930140  59.9119900  38.9590460  46.1894580  66.0454020
  39.3263500  46.1021980  66.9250040  38.3901280  45.4261130  65.9460880
  53.7594320  44.6578960  69.0584490  53.5280410  44.4291710  68.1582440
  54.0198870  45.5778510  69.0129380  37.1352610  43.0140940  57.4476010
  36.2316690  43.2771140  57.2727670  37.6193230  43.2852110  56.6675970
  53.6445660  43.7364930  62.7252210  54.1683140  43.2427580  62.0942380
  54.2305080  43.8715290  63.4699780  53.8235380  43.8204800  66.2471760
  52.8738090  43.7868340  66.3616750  54.0048390  44.7304910  66.0121530
  39.6779820  42.0706480  55.3570390  40.3871520  41.6489700  54.8717670
  38.9619760  42.1381710  54.7253740  39.3253980  38.1245810  54.3973040
  40.0482110  38.6654750  54.7154260  39.5978500  37.8509230  53.5214580
  53.1345630  42.9938280  58.6644620  53.6304750  42.7609150  59.4493500
  52.9361700  42.1550120  58.2482260  39.0146170  37.3752000  64.2995660
  39.6622360  36.8249380  63.8590820  39.4348010  37.6295150  65.1211470
  54.5632790  41.6299230  61.1982300  54.4532070  41.4755270  62.1364570
  55.3240380  41.1020170  60.9557710  52.9098510  37.5693360  67.6565300
  53.5470730  38.1827500  68.0224490  53.0573400  37.6054020  66.7114530
  55.4523060  39.4607150  54.4388440  56.3772370  39.3288330  54.2306730
  55.4298850  39.5399970  55.3924890  55.5261550  40.2317810  57.0645150
  54.7313050  40.1662930  57.5938060  55.7304830  41.1668450  57.0530500
  52.4679970  54.2709360  61.0583540  53.0639040  53.9493930  60.3817960
  52.7258120  53.7981180  61.8496810  38.7678170  37.5307670  67.0420980
  38.4192990  37.9871490  67.8079160  38.4365870  36.6364800  67.1243410
  44.0748570  52.2586860  66.8083890  43.8339930  52.5261420  65.9214410
  45.0151210  52.4292590  66.8634750  55.3352730  54.2781240  67.6094530
  54.8411010  54.6750110  66.8921660  54.7266020  53.6530450  68.0031810
  40.2130570  53.6489520  68.3271950  39.6190890  53.5174220  69.0661990
  40.2054410  52.8127660  67.8614050  49.6585590  36.9421750  66.5301980
  48.7845430  37.2756860  66.3274910  49.5496340  36.4694930  67.3553850
  50.5657570  39.1492620  67.9143700  50.2370930  38.3344380  67.5345430
  51.5139870  39.1062430  67.7909390  53.0192180  54.9204660  64.8881270
  52.5595150  55.6720470  64.5139290  52.3904640  54.2011130  64.8296070
  39.8442800  51.0147900  67.2779990  39.1176860  50.3953190  67.2105940
  39.9051950  51.4088510  66.4078070  43.4487900  53.2292900  64.0629400
  43.9652920  52.6180260  63.5377660  44.0985280  53.7321680  64.5540410
  46.1883400  54.1201390  64.8898380  46.4761210  53.8655690  64.0131390
  46.7006620  53.5678750  65.4803950  47.4060410  37.8591590  65.4694890
  46.6232200  38.3337090  65.7491650  47.1123340  36.9546420  65.3608070
  51.9581480  38.5614690  63.5143980  52.3989570  38.5059790  62.6665580
  51.6889070  39.4772700  63.5854160  53.8220050  38.1929930  61.5252800
  53.7608450  37.2491150  61.3783820  54.6012080  38.3010020  62.0706260
  38.1272800  54.3322290  60.4876750  37.9594840  53.6992970  61.1858640
  37.2607310  54.5381690  60.1370940  38.7500820  38.1639070  57.9908610
  39.5080180  38.2767950  57.4172640  38.2877990  39.0008270  57.9452040
  45.2914630  40.2778340  60.9810920  44.4789140  39.9035230  60.6406800
  45.7956270  39.5223420  61.2832110  49.7939610  36.9420790  62.2193990
  50.3968980  37.5141000  62.6942510  49.0532600  37.5060230  61.9967890
  52.9374210  37.3442350  57.4934270  53.1324840  38.2425800  57.7601700
  52.1504080  37.1129430  57.9867220  39.7335500  53.0255520  57.9326890
  39.2083120  53.4063550  57.2288850  39.6580080  53.6506290  58.6536600
  41.1225970  38.6903120  56.5310580  41.6518730  37.9032920  56.4018530
  41.7554290  39.3694310  56.7646110  43.3163810  38.4278260  59.5855970
  42.6866550  37.7265570  59.7526100  42.7768950  39.1882390  59.3689130
  54.4900820  54.5843060  59.2540830  54.6653010  53.8980800  58.6101750
  53.7922390  55.1090110  58.8617500  42.3328470  54.9737900  56.8076140
  43.0647290  54.6897180  56.2600030  42.5922140  54.7351180  57.6975520
  41.4943260  51.0902630  56.8122470  40.8652140  51.5587730  57.3608300
  41.6091090  50.2451850  57.2468660  48.9492980  45.1408290  42.9623670
  48.8687030  44.2262900  42.6915380  48.5357400  45.6375360  42.2563380
  47.0811020  46.9187310  44.8432940  46.3053120  46.4387750  45.1331510
  47.7323950  46.2392960  44.6689100  41.0976850  47.2307120  45.7208700
  40.2661730  46.9755830  46.1205210  41.7057830  47.3017890  46.4566620
  51.1018450  51.3247500  43.6232070  50.6399980  50.5534740  43.9519240
  51.9144000  51.3513570  44.1284520  41.0778110  51.2647210  45.9166720
  41.3806150  50.3744950  45.7376940  41.8221700  51.8217430  45.6888970
  39.5068800  42.1909010  39.5051090  38.6185500  42.5324980  39.4030970
  39.7909990  41.9909330  38.6131920  37.4701810  44.7914660  45.3890790
  38.0417920  44.0236860  45.3894430  37.4703350  45.0903420  44.4797400
  47.3281760  53.6105510  43.2436060  46.7093200  54.0663010  42.6730500
  48.1833540  53.7656970  42.8425760  46.5220010  49.5944500  44.8503100
  46.4528290  48.6534440  44.6892230  47.2839870  49.6845910  45.4225670
  38.7126680  40.1999020  47.1759720  38.5329520  39.3024770  47.4562480
  38.3106760  40.7470890  47.8506670  47.5525180  42.4014880  45.0772030
  47.9290000  41.5286760  44.9645700  47.4544690  42.7373580  44.1862470
  41.6830190  40.7740510  40.5389470  41.7896940  41.6744240  40.8458230
  40.7722550  40.7258480  40.2484120  51.3349300  39.8965320  42.0100370
  52.1558920  39.4061890  42.0525850  51.3683380  40.4862980  42.7632210
  39.3313350  42.6959520  45.7842060  40.0123460  42.9597890  46.4029460
  39.0161400  41.8560390  46.1180070  43.5237920  43.7426880  44.8714650
  44.0316140  44.2407850  45.5119670  44.0551160  42.9662080  44.6954010
  55.6248850  41.9132070  48.5744000  54.9201020  42.3013780  48.0559110
  55.8906770  42.6082360  49.1764930  41.8074020  38.3825440  49.1378070
  41.8092460  38.8997830  48.3323970  40.9778330  37.9055620  49.1148000
  48.1945110  48.4944750  40.6367970  47.5762380  48.9594200  40.0730690
  48.7068360  49.1872230  41.0537480  43.0576870  48.0220620  47.3151570
  42.7246250  48.6489540  47.9572640  43.2343550  48.5482500  46.5353240
  51.5710780  41.8365700  44.7827910  50.8666350  42.1250590  45.3631020
  51.9322940  42.6465810  44.4227470  41.4889350  40.0935400  47.1448520
  41.8306160  40.9377450  46.8502390  40.5505160  40.2419140  47.2613860
  42.2695970  49.9901420  49.1300750  42.8869970  50.6652500  48.8485200
  41.4089090  50.3989400  49.0388250  37.5628310  49.1801280  38.0107600
  37.1856290  49.6688380  37.2792500  37.8201380  49.8526560  38.6414130
  53.1873560  51.4540830  47.0455390  52.5037080  52.1239940  47.0372060
  53.7267850  51.6521480  46.2800250  54.6397700  41.2820490  45.1737120
  53.6922610  41.3159470  45.3052550  54.9647690  42.0959440  45.5586480
  45.1717240  37.5817670  43.4693110  45.4792220  37.0264560  42.7528610
  44.2417940  37.7162130  43.2866100  50.7232300  53.2984960  45.7600570
  50.7359460  52.8947250  44.8922830  50.1707520  54.0732250  45.6562000
  52.0177720  50.0201180  40.8490740  51.9074050  49.0775510  40.9740160
  52.0145970  50.3816820  41.7353500  50.1217740  48.2014800  47.0883180
  50.5386530  47.9874910  46.2536640  50.8457560  48.4587590  47.6591800
  47.5598000  45.6466500  40.2053230  46.6327280  45.5803880  40.4341700
  47.7122820  46.5846630  40.0908470  47.5467080  41.9183500  37.2020390
  46.6070750  42.0797460  37.2872850  47.8650340  42.6369180  36.6556380
  54.0679840  46.6002020  47.1799420  53.2398470  46.6695110  46.7049550
  54.6630320  47.1856330  46.7115250  51.5895290  47.2086800  40.7088480
  50.9707710  46.8706350  40.0614780  51.5719740  46.5646560  41.4167670
  51.0321850  43.3871340  48.1254290  50.6193030  44.2125050  48.3794280
  50.2997800  42.8016380  47.9330650  43.1654640  46.1731240  42.9872960
  42.7611640  45.4608490  42.4918860  43.2517760  45.8284480  43.8761000
  43.6336340  49.8598800  45.1512170  43.3364630  49.2544270  44.4719950
  44.5836160  49.8976110  45.0401530  41.8783260  42.9474450  46.7672000
  42.4297850  43.0569790  45.9925250  42.3926770  43.3212050  47.4827230
  51.7221950  53.4330670  48.8135270  51.2452510  54.2402860  48.6207880
  51.0383740  52.7809000  48.9661480  42.7254770  49.5980490  51.8019970
  41.8283300  49.8220460  52.0493370  42.7507640  49.7215430  50.8531370
  49.7659990  46.4473610  37.7161230  50.2053270  45.6096040  37.5699050
  50.4788410  47.0803010  37.8025370  41.5525990  46.4693810  50.3777340
  41.4133760  47.3416610  50.7464740  40.6707350  46.1266620  50.2325280
  47.8755370  51.3869680  41.6842470  48.3151280  52.1294010  41.2697860
  47.8142260  51.6296250  42.6081430  43.3506340  52.4115510  52.5862490
  43.3221770  52.8158460  51.7190920  43.1871310  51.4825870  52.4234090
  53.3477130  37.7016420  36.0302270  53.0349790  37.7943250  36.9301340
  54.1089600  38.2797450  35.9799700  39.8659270  45.0676220  40.4879610
  39.7456870  45.7938310  39.8760880  39.5560160  44.2979130  40.0107520
  55.3021160  53.1942610  53.8826660  55.7780880  53.6725500  54.5615740
  55.9228320  53.1260100  53.1572160  37.5044640  48.2391360  46.2948250
  37.5825060  48.3740130  45.3503970  38.1186320  47.5307250  46.4876370
  38.7492270  49.9391550  42.7054430  38.3420350  50.0806140  41.8508030
  39.6405280  49.6551710  42.5025640  54.7054410  50.3855460  51.0426670
  54.8317470  50.1467340  50.1243850  54.7475790  49.5540000  51.5148750
  48.5671150  54.0883460  49.6121480  49.0815820  53.9991470  50.4143910
  47.7240230  54.4343160  49.9049390  50.5425550  54.3738800  39.0405480
  50.3826690  54.0841740  39.9387310  50.3772260  53.5978930  38.5050710
  43.0213930  54.1537330  40.8177100  42.8456410  53.2372870  40.6044900
  42.1669670  54.5124620  41.0574900  50.2451680  51.8826360  37.6003480
  49.5516840  51.8803650  36.9405760  50.9874540  51.4585680  37.1697650
  49.8101610  53.5089070  41.6751970  50.2658560  52.7278450  41.9890590
  50.1494130  54.2195890  42.2193150  54.5578420  42.4387920  52.0076410
  53.9422690  42.9467590  51.4791870  54.2374840  41.5386250  51.9502350
  37.5604160  49.2805530  48.8342710  37.7235200  48.8110890  48.0162080
  38.0256610  48.7729090  49.4991550  42.3322930  38.4111290  43.8703280
  41.8891080  39.1920830  43.5387800  42.8907920  38.7341180  44.5774220
  46.6192740  41.2779810  49.4738600  46.1572110  41.4862830  50.2858540
  46.2170850  40.4639160  49.1709270  51.6197250  42.4988760  50.6035260
  50.7690840  42.1994510  50.9244330  51.4599040  42.7430770  49.6919080
  48.7146960  43.9990510  52.7034050  49.0400370  43.1654260  52.3636280
  49.5027290  44.5219030  52.8512380  45.4481750  38.0321990  38.7509110
  44.8235930  38.0281860  39.4762420  45.3611870  37.1652950  38.3545080
  44.3698830  38.9558620  45.7292880  44.6671160  39.8621450  45.6484900
  44.9184390  38.4677400  45.1152450  42.1237150  43.5344860  41.5984530
  41.8978070  43.3182030  42.5031150  41.3429680  43.9673320  41.2530500
  49.3534910  43.5408230  40.1975180  48.7543800  44.2644030  40.0138800
  49.9014520  43.4785010  39.4151630  44.5636360  44.4330440  52.2644800
  44.4679960  43.4925170  52.1145200  45.4068340  44.6545510  51.8692870
  47.9599780  42.1771770  42.2278460  48.3529350  42.4943970  41.4147150
  48.3216630  41.2983650  42.3422980  39.6946900  40.8444110  50.4178580
  39.3010290  41.6919320  50.6251360  39.0065300  40.2070480  50.6087220
  46.2691950  40.9279080  53.4875320  45.5790270  40.7351280  54.1221410
  47.0124250  41.2113720  54.0199620  36.9963950  38.7672570  44.4508660
  36.7077000  39.3375430  45.1633640  37.7409710  38.2877020  44.8139890
  48.5454920  44.7677520  46.3229240  47.8136040  45.2764330  46.6719340
  48.1479260  43.9507500  46.0218020  44.9832310  41.4431720  44.7281730
  44.9868370  41.0021670  43.8786270  45.8783430  41.7649050  44.8353550
  40.8334690  41.3258210  43.6875940  40.4934740  41.8033440  44.4442990
  40.0712010  40.8723330  43.3277040  45.0452460  42.4443800  37.7188490
  45.1665280  42.4030280  38.6674310  44.6600970  43.3067950  37.5635220
  49.0080830  40.2211200  45.7352180  49.0253570  40.6719850  46.5794030
  48.7596410  39.3216840  45.9485620  44.0573960  44.7544940  37.1171790
  43.4890860  44.3063190  36.4907700  44.7662960  45.1137720  36.5836940
  52.4351580  37.6343380  51.5738560  52.7597350  36.9033040  52.0996540
  52.4708090  37.3157020  50.6719550  39.1343140  48.6556960  50.9938520
  38.7497930  48.0150630  51.5921480  39.4455330  49.3593080  51.5633250
  45.2840280  45.5033500  46.4747140  45.6510410  45.0292070  47.2208480
  45.0945340  46.3775070  46.8155480  38.1480770  40.2477190  42.6040610
  37.8627690  39.8832860  43.4419230  38.0859630  39.5157650  41.9903750
  43.0739650  44.5442140  48.7931350  42.7696720  45.4234120  49.0181710
  44.0286110  44.6041930  48.8288790  41.6021440  48.7503130  39.3898200
  40.8283700  48.2100750  39.2296920  42.3316070  48.2309740  39.0515960
  52.3609420  47.7468490  45.1824590  53.0808540  48.2423780  44.7920700
  52.1591240  47.0686380  44.5378460  47.8219360  39.1406450  39.3253980
  47.0083970  38.6419620  39.2499290  47.6281310  39.9804700  38.9090330
  47.7428220  47.8177550  51.0693590  47.6765530  46.8973220  50.8151180
  47.1133360  47.9152990  51.7838230  50.5367750  43.5126100  37.6216140
  51.4247370  43.8243330  37.4467480  50.5072840  42.6398350  37.2296720
  41.6458840  48.4183510  43.0277010  42.1637510  47.6151770  42.9733900
  41.1942860  48.3562650  43.8693840  46.5328340  49.6849790  38.3004310
  46.8744040  50.4292020  37.8047630  45.7041050  49.9980910  38.6629140
  39.1303380  45.3844880  49.9402710  38.7718320  46.0498730  50.5276050
  38.8357940  44.5528430  50.3115330  42.3316500  45.8429120  52.8242260
  42.0316640  45.9886300  51.9270080  43.1027740  45.2834410  52.7315650
  47.6744950  50.6398120  50.8197390  47.6889490  49.7079080  50.6016300
  46.9670050  50.7257880  51.4587160  52.8082020  44.8237940  37.0896000
  52.7245740  45.2552160  36.2392440  53.5276210  45.2836290  37.5222820
  53.8856160  47.2805460  50.1665970  53.1604350  47.8734240  49.9695360
  54.4131620  47.2729000  49.3679340  53.8369270  51.6780200  39.8178130
  53.1945430  51.0235820  40.0921850  53.4499930  52.0835290  39.0418800
  49.4155750  49.0065630  43.6649820  49.7679570  48.4093760  43.0051190
  48.5318080  48.6809860  43.8358070  45.5019030  49.7663320  41.0720230
  46.1890160  50.3132530  41.4527820  44.7151450  50.3104050  41.1069840
  37.6411430  45.3836140  36.5637310  38.5106280  45.6660940  36.8473230
  37.1501750  46.1972010  36.4486120  44.8046240  46.7709350  40.6845590
  45.2609020  47.5814600  40.9105780  44.4534450  46.4532490  41.5164080
  47.1078850  52.2815690  47.9137890  47.7521070  52.4875070  48.5911310
  47.4708290  51.5204090  47.4608740  40.7058020  37.1147000  41.1568110
  40.5772650  37.1064900  42.1053030  39.8820040  37.4530090  40.8059120
  48.3810930  50.2848040  46.6315340  49.0233160  49.5841200  46.7447510
  48.9060280  51.0646480  46.4512230  52.2266650  50.5696660  36.3554480
  52.0004230  49.8527100  36.9479120  51.8362850  50.3209100  35.5176230
  50.1548550  51.0842940  49.8351400  50.4904790  51.6709630  50.5129320
  49.2348890  50.9535650  50.0649190  38.0082680  54.5963520  37.1298940
  38.3680320  55.1952860  36.4756210  37.8675020  55.1423410  37.9033970
  37.7051950  38.8738120  50.6174810  36.9910470  39.0735040  51.2227420
  38.1246990  38.0977690  50.9889610  51.8082900  48.4868600  38.0168640
  51.5204600  48.9481290  38.8046520  52.6035070  48.0266370  38.2852860
  37.9924540  52.8618380  51.6041340  38.1015660  51.9213120  51.4636730
  37.3405100  53.1273130  50.9555070  45.9837130  51.1334270  53.0039460
  45.6634000  50.4143510  53.5485150  45.3095490  51.8089340  53.0775520
  44.0251300  51.9794720  37.9472610  44.0161400  52.7124410  37.3317120
  43.1049660  51.7326300  38.0399570  39.6257940  47.2009610  38.6919370
  39.0185890  47.9408510  38.7014670  40.1007290  47.2908970  37.8657570
  49.1990730  41.3660430  48.3676260  49.5671550  40.5455640  48.6955830
  48.3388930  41.4262320  48.7831910  52.5652760  40.3217370  39.1763820
  51.9365920  40.4263040  38.4622050  52.0704680  40.5414150  39.9657700
  47.0110900  52.0422960  36.6097800  47.1122880  51.8386950  35.6799780
  46.1112640  51.7881240  36.8145580  44.5336790  42.6003320  40.5921700
  43.8252940  43.0689660  41.0335310  44.8181270  41.9425330  41.2266890
  46.1592720  44.0200020  48.5914230  46.6577970  44.4945840  49.2566080
  46.3015670  43.0963540  48.7984260  48.5652220  39.3253980  42.0317490
  48.4420000  39.3440110  41.0827000  49.5136780  39.3732920  42.1515890
  45.6529010  54.5609280  41.3045470  45.9070510  54.5230670  40.3824840
  44.7041490  54.4342610  41.2973720  42.7371810  40.9088400  37.9672410
  43.5862340  41.3458550  37.9012600  42.3703080  41.2208660  38.7944470
  53.3659580  40.2367980  49.4342620  52.8633180  40.9773380  49.7736430
  54.1816240  40.6251980  49.1179410  51.6581590  45.4801160  42.8803980
  50.7171730  45.4951390  43.0551670  51.9725660  44.6937120  43.3264280
  41.6363230  47.1620760  36.4407940  42.4026500  47.0502120  37.0033370
  41.7137920  46.4658730  35.7884710  40.3309990  44.5945830  37.1240830
  40.4113580  43.6473340  37.2358230  41.2229740  44.9252710  37.2301490
  53.6607170  52.6510010  44.5558240  53.7854590  53.4741180  45.0282050
  54.5272730  52.4400740  44.2082390  41.1324700  54.7441220  44.2275370
  41.8687180  54.1956680  44.4983940  41.5165620  55.6097230  44.0881360
  38.0170180  50.8114790  40.1016880  37.0909960  51.0535930  40.0922290
  38.4826610  51.6389050  39.9801630  40.1382980  53.9287290  53.4160950
  40.9395710  54.2499340  53.8296350  39.6234800  53.5682870  54.1380860
  44.2427010  53.9171530  36.0500940  45.0355620  54.2060360  35.5982730
  43.7231360  53.4863700  35.3713420  48.9747610  50.0367160  53.3636360
  48.3685770  50.0598760  52.6232110  48.6701720  49.3050200  53.9003610
  50.4047980  53.7647450  51.9745770  51.3569730  53.6805470  51.9246010
  50.2576200  54.4289160  52.6479560  53.2957180  53.1441660  37.4737680
  53.0098690  52.7306800  36.6591860  53.0976730  54.0729370  37.3538200
  37.8580790  46.4160750  52.3597000  38.3619810  45.8368030  52.9313230
  37.1188210  46.7000980  52.8973370  44.7604410  49.1374940  35.9143290
  44.6555050  48.5227290  36.6404670  44.5928630  48.6140830  35.1306300
  44.9118730  47.8231740  51.8932520  44.1464400  48.3916740  51.8087190
  45.0934690  47.5307950  51.0000750  48.0007140  48.1994970  36.5185280
  47.4517240  48.6464270  37.1628020  48.6226400  47.6944220  37.0422950
  52.0542080  49.5537070  52.4507540  52.7951550  49.8912830  51.9475000
  51.2914760  49.7229130  51.8977310  39.8903870  44.5590340  53.2547070
  39.9309210  44.2604210  54.1632300  40.7449370  44.9597950  53.0954590
  43.6682260  47.1585890  38.4150580  44.0898680  46.9925760  39.2581970
  43.7933100  46.3486120  37.9205720  41.8309680  43.1382440  51.2221560
  41.3006140  42.6473390  50.5944900  42.4997750  43.5666640  50.6879490
  46.1809900  46.1823500  35.6627680  46.7015560  45.4672520  35.2968830
  46.8278300  46.8209370  35.9628190  50.7287740  47.6051900  50.9862750
  51.1428760  47.7596980  51.8353170  49.7938740  47.7307120  51.1488530
  51.2009910  44.9448060  52.9901900  51.7830680  44.1900380  52.9022380
  51.3771680  45.4755500  52.2133380  42.3181980  40.1044810  51.3018850
  42.2238850  39.4865560  50.5769720  41.7379370  40.8311100  51.0748760
  45.0843420  38.6618050  48.3346240  44.6360720  38.6842310  47.4891790
  44.4508620  38.2637070  48.9316540  45.4902970  47.5572380  48.9558680
  45.9091080  48.4005110  48.7834920  44.5711600  47.6944420  48.7265460
  47.8266870  45.2888560  50.3396520  47.9463080  44.6929700  51.0791360
  48.6860870  45.3258250  49.9197820  50.1654770  45.8425750  48.9159030
  49.6389990  46.3668370  48.3124170  50.5086110  46.4753140  49.5468760
  42.5641160  43.2319120  35.3608740  42.3630220  42.3686480  35.7222080
  42.3933210  43.1452480  34.4230340  43.3410390  53.8625390  50.0716410
  42.8031480  54.5871450  49.7525110  43.5944350  53.3855730  49.2813750
  44.5935640  41.8309910  51.5972340  45.1835330  41.5225760  52.2850160
  43.7755880  41.3589660  51.7532240  49.4129070  41.4475720  51.8305360
  48.7244590  40.7857260  51.7655350  50.1335090  41.0013990  52.2753820
  50.0429470  38.0427350  37.8895620  50.3231760  37.1995250  38.2455040
  49.2695200  38.2750460  38.4034370  46.1972600  55.0976600  50.3303060
  46.1231300  56.0011740  50.6375430  45.2951440  54.7788500  50.3025130
  44.5808890  39.2754360  36.3342820  44.2330890  38.5978350  35.7545270
  44.7821660  38.8143870  37.1486210  46.7457930  54.2635110  37.9529420
  47.6408720  54.6020080  37.9748180  46.7775560  53.5414520  37.3253700
  40.3854090  49.6362160  36.1816420  40.8228960  50.1791830  36.8374000
  40.8701820  48.8109110  36.1912760  37.5999890  52.4251190  43.6336680
  37.9302900  51.5572250  43.4015320  38.0290890  52.6309710  44.4641640
  42.1961810  50.7560200  41.2938650  41.8957350  50.6325170  42.1942560
  42.0899300  49.8968790  40.8854380  38.0890100  53.2921780  46.3718310
  37.6521090  53.4722580  47.2042460  38.6567780  54.0496400  46.2300030
  53.7252280  52.7938780  50.6595620  53.1254270  52.8531340  49.9159540
  53.8546180  51.8543760  50.7892470  54.9653730  50.5356600  35.9965330
  54.1346690  50.6033250  36.4672560  55.1425560  51.4260720  35.6932190
  54.4210190  47.2804080  38.4999530  55.1829100  47.8500730  38.6059220
  54.4364560  46.7131280  39.2707840  37.9214530  45.8042010  42.7307190
  37.2663370  45.5353650  42.0866890  38.7592480  45.6946490  42.2809170
  55.4270160  48.1354180  43.3441460  55.7978990  47.3521500  42.9377430
  56.0672090  48.8243280  43.1658760  52.4103920  49.5190760  48.7571780
  51.5963760  49.9487920  49.0197570  52.8178120  50.1309170  48.1440830
  54.4729360  47.5738450  35.6572050  54.7478200  48.4817330  35.5291270
  54.2840100  47.5100980  36.5934040  50.8704970  40.5983300  36.9525680
  51.2889850  40.4114280  36.1122340  50.5641030  39.7462350  37.2628610
  54.3694700  45.5107440  40.6501480  53.9938300  44.7435370  40.2182770
  53.6397820  45.8930140  41.1376410  38.9590460  46.1894580  47.2710530
  39.3263500  46.1021980  48.1506550  38.3901280  45.4261130  47.1717390
  53.7594320  44.6578960  50.2841000  53.5280410  44.4291710  49.3838950
  54.0198870  45.5778510  50.2385890  38.5106460  43.1003670  51.1768950
  37.6162510  43.0670430  51.5162660  39.0504010  43.2990460  51.9420200
  52.1982390  39.8835390  53.0620700  53.0752570  39.8918790  53.4454700
  52.2103230  39.1466230  52.4513050  37.1352610  43.0140940  38.6732520
  36.2316690  43.2771140  38.4984180  37.6193230  43.2852110  37.8932480
  53.6445660  43.7364930  43.9508720  54.1683140  43.2427580  43.3198890
  54.2305080  43.8715290  44.6956290  53.8235380  43.8204800  47.4728270
  52.8738090  43.7868340  47.5873260  54.0048390  44.7304910  47.2378040
  39.6779820  42.0706480  36.5826900  40.3871520  41.6489700  36.0974180
  38.9619760  42.1381710  35.9510250  53.1345630  42.9938280  39.8901130
  53.6304750  42.7609150  40.6750010  52.9361700  42.1550120  39.4738770
  39.0146170  37.3752000  45.5252170  39.6622360  36.8249380  45.0847330
  39.4348010  37.6295150  46.3467980  54.5632790  41.6299230  42.4238810
  54.4532070  41.4755270  43.3621080  55.3240380  41.1020170  42.1814220
  52.9098510  37.5693360  48.8821810  53.5470730  38.1827500  49.2481000
  53.0573400  37.6054020  47.9371040  55.4523060  39.4607150  35.6644950
  56.3772370  39.3288330  35.4563240  55.4298850  39.5399970  36.6181400
  55.5261550  40.2317810  38.2901660  54.7313050  40.1662930  38.8194570
  55.7304830  41.1668450  38.2787010  52.4679970  54.2709360  42.2840050
  53.0639040  53.9493930  41.6074470  52.7258120  53.7981180  43.0753320
  38.7678170  37.5307670  48.2677490  38.4192990  37.9871490  49.0335670
  38.4365870  36.6364800  48.3499920  40.3742540  50.7027270  52.4330680
  40.3312170  50.3320180  53.3145140  40.5053550  51.6404840  52.5732500
  44.0748570  52.2586860  48.0340400  43.8339930  52.5261420  47.1470920
  45.0151210  52.4292590  48.0891260  46.2802990  38.7219550  51.7896910
  46.2191880  39.3141380  52.5392320  47.2203370  38.6145510  51.6447170
  48.9177550  38.3789610  51.4289200  49.5317960  38.6968900  50.7670280
  49.4627110  37.8938200  52.0485060  55.3352730  54.2781240  48.8351040
  54.8411010  54.6750110  48.1178170  54.7266020  53.6530450  49.2288320
  39.4398810  37.0583870  51.5428260  39.9881800  36.8771920  50.7794370
  39.5054120  36.2677980  52.0784570  40.2130570  53.6489520  49.5528460
  39.6190890  53.5174220  50.2918500  40.2054410  52.8127660  49.0870560
  49.6585590  36.9421750  47.7558490  48.7845430  37.2756860  47.5531420
  49.5496340  36.4694930  48.5810360  50.5657570  39.1492620  49.1400210
  50.2370930  38.3344380  48.7601940  51.5139870  39.1062430  49.0165900
  53.0192180  54.9204660  46.1137780  52.5595150  55.6720470  45.7395800
  52.3904640  54.2011130  46.0552580  39.8442800  51.0147900  48.5036500
  39.1176860  50.3953190  48.4362450  39.9051950  51.4088510  47.6334580
  43.4487900  53.2292900  45.2885910  43.9652920  52.6180260  44.7634170
  44.0985280  53.7321680  45.7796920  46.1883400  54.1201390  46.1154890
  46.4761210  53.8655690  45.2387900  46.7006620  53.5678750  46.7060460
  47.4060410  37.8591590  46.6951400  46.6232200  38.3337090  46.9748160
  47.1123340  36.9546420  46.5864580  51.9581480  38.5614690  44.7400490
  52.3989570  38.5059790  43.8922090  51.6889070  39.4772700  44.8110670
  53.8220050  38.1929930  42.7509310  53.7608450  37.2491150  42.6040330
  54.6012080  38.3010020  43.2962770  38.1272800  54.3322290  41.7133260
  37.9594840  53.6992970  42.4115150  37.2607310  54.5381690  41.3627450
  45.2914630  40.2778340  42.2067430  44.4789140  39.9035230  41.8663310
  45.7956270  39.5223420  42.5088620  49.7939610  36.9420790  43.4450500
  50.3968980  37.5141000  43.9199020  49.0532600  37.5060230  43.2224400
  52.9374210  37.3442350  38.7190780  53.1324840  38.2425800  38.9858210
  52.1504080  37.1129430  39.2123730  39.7335500  53.0255520  39.1583400
  39.2083120  53.4063550  38.4545360  39.6580080  53.6506290  39.8793110
  43.3163810  38.4278260  40.8112480  42.6866550  37.7265570  40.9782610
  42.7768950  39.1882390  40.5945640  46.2555760  55.0417490  53.4823090
  47.1823070  54.8061760  53.5259050  46.2406190  55.8689490  53.0009120
  54.4900820  54.5843060  40.4797340  54.6653010  53.8980800  39.8358260
  53.7922390  55.1090110  40.0874010  43.4419370  37.7062240  53.2464970
  43.1603640  38.2095840  52.4825790  43.8239070  36.9083990  52.8807100
  42.3328470  54.9737900  38.0332650  43.0647290  54.6897180  37.4856540
  42.5922140  54.7351180  38.9232030  41.4943260  51.0902630  38.0378980
  40.8652140  51.5587730  38.5864810  41.6091090  50.2451850  38.4725170
  50.0434830  37.1215820  53.8245440  49.9300280  37.4410430  54.7196960
  50.8604570  37.5228330  53.5282720  52.8233320  54.2687350  53.3064130
  53.6158640  53.7736580  53.0990090  53.1166470  54.9477490  53.9139740
  48.9492980  45.1408290  24.1880180  48.8687030  44.2262900  23.9171890
  48.5357400  45.6375360  23.4819890  47.0811020  46.9187310  26.0689450
  46.3053120  46.4387750  26.3588020  47.7323950  46.2392960  25.8945610
  41.0976850  47.2307120  26.9465210  40.2661730  46.9755830  27.3461720
  41.7057830  47.3017890  27.6823130  51.1018450  51.3247500  24.8488580
  50.6399980  50.5534740  25.1775750  51.9144000  51.3513570  25.3541030
  41.0778110  51.2647210  27.1423230  41.3806150  50.3744950  26.9633450
  41.8221700  51.8217430  26.9145480  39.5068800  42.1909010  20.7307600
  38.6185500  42.5324980  20.6287480  39.7909990  41.9909330  19.8388430
  37.4701810  44.7914660  26.6147300  38.0417920  44.0236860  26.6150940
  37.4703350  45.0903420  25.7053910  47.3281760  53.6105510  24.4692570
  46.7093200  54.0663010  23.8987010  48.1833540  53.7656970  24.0682270
  46.5220010  49.5944500  26.0759610  46.4528290  48.6534440  25.9148740
  47.2839870  49.6845910  26.6482180  38.7126680  40.1999020  28.4016230
  38.5329520  39.3024770  28.6818990  38.3106760  40.7470890  29.0763180
  47.5525180  42.4014880  26.3028540  47.9290000  41.5286760  26.1902210
  47.4544690  42.7373580  25.4118980  41.6830190  40.7740510  21.7645980
  41.7896940  41.6744240  22.0714740  40.7722550  40.7258480  21.4740630
  51.3349300  39.8965320  23.2356880  52.1558920  39.4061890  23.2782360
  51.3683380  40.4862980  23.9888720  39.3313350  42.6959520  27.0098570
  40.0123460  42.9597890  27.6285970  39.0161400  41.8560390  27.3436580
  43.5237920  43.7426880  26.0971160  44.0316140  44.2407850  26.7376180
  44.0551160  42.9662080  25.9210520  55.6248850  41.9132070  29.8000510
  54.9201020  42.3013780  29.2815620  55.8906770  42.6082360  30.4021440
  48.1945110  48.4944750  21.8624480  47.5762380  48.9594200  21.2987200
  48.7068360  49.1872230  22.2793990  43.0576870  48.0220620  28.5408080
  42.7246250  48.6489540  29.1829150  43.2343550  48.5482500  27.7609750
  51.5710780  41.8365700  26.0084420  50.8666350  42.1250590  26.5887530
  51.9322940  42.6465810  25.6483980  41.4889350  40.0935400  28.3705030
  41.8306160  40.9377450  28.0758900  40.5505160  40.2419140  28.4870370
  42.2695970  49.9901420  30.3557260  42.8869970  50.6652500  30.0741710
  41.4089090  50.3989400  30.2644760  37.5628310  49.1801280  19.2364110
  37.1856290  49.6688380  18.5049010  37.8201380  49.8526560  19.8670640
  53.1873560  51.4540830  28.2711900  52.5037080  52.1239940  28.2628570
  53.7267850  51.6521480  27.5056760  54.6397700  41.2820490  26.3993630
  53.6922610  41.3159470  26.5309060  54.9647690  42.0959440  26.7842990
  45.1717240  37.5817670  24.6949620  45.4792220  37.0264560  23.9785120
  44.2417940  37.7162130  24.5122610  50.7232300  53.2984960  26.9857080
  50.7359460  52.8947250  26.1179340  50.1707520  54.0732250  26.8818510
  52.0177720  50.0201180  22.0747250  51.9074050  49.0775510  22.1996670
  52.0145970  50.3816820  22.9610010  50.1217740  48.2014800  28.3139690
  50.5386530  47.9874910  27.4793150  50.8457560  48.4587590  28.8848310
  47.5598000  45.6466500  21.4309740  46.6327280  45.5803880  21.6598210
  47.7122820  46.5846630  21.3164980  47.5467080  41.9183500  18.4276900
  46.6070750  42.0797460  18.5129360  47.8650340  42.6369180  17.8812890
  54.0679840  46.6002020  28.4055930  53.2398470  46.6695110  27.9306060
  54.6630320  47.1856330  27.9371760  51.5895290  47.2086800  21.9344990
  50.9707710  46.8706350  21.2871290  51.5719740  46.5646560  22.6424180
  51.0321850  43.3871340  29.3510800  50.6193030  44.2125050  29.6050790
  50.2997800  42.8016380  29.1587160  43.1654640  46.1731240  24.2129470
  42.7611640  45.4608490  23.7175370  43.2517760  45.8284480  25.1017510
  43.6336340  49.8598800  26.3768680  43.3364630  49.2544270  25.6976460
  44.5836160  49.8976110  26.2658040  41.8783260  42.9474450  27.9928510
  42.4297850  43.0569790  27.2181760  42.3926770  43.3212050  28.7083740
  51.7221950  53.4330670  30.0391780  51.2452510  54.2402860  29.8464390
  51.0383740  52.7809000  30.1917990  42.7254770  49.5980490  33.0276480
  41.8283300  49.8220460  33.2749880  42.7507640  49.7215430  32.0787880
  49.7659990  46.4473610  18.9417740  50.2053270  45.6096040  18.7955560
  50.4788410  47.0803010  19.0281880  41.5525990  46.4693810  31.6033850
  41.4133760  47.3416610  31.9721250  40.6707350  46.1266620  31.4581790
  47.8755370  51.3869680  22.9098980  48.3151280  52.1294010  22.4954370
  47.8142260  51.6296250  23.8337940  43.3506340  52.4115510  33.8119000
  43.3221770  52.8158460  32.9447430  43.1871310  51.4825870  33.6490600
  53.3477130  37.7016420  17.2558780  53.0349790  37.7943250  18.1557850
  54.1089600  38.2797450  17.2056210  39.8659270  45.0676220  21.7136120
  39.7456870  45.7938310  21.1017390  39.5560160  44.2979130  21.2364030
  55.3021160  53.1942610  35.1083170  55.7780880  53.6725500  35.7872250
  55.9228320  53.1260100  34.3828670  37.5044640  48.2391360  27.5204760
  37.5825060  48.3740130  26.5760480  38.1186320  47.5307250  27.7132880
  38.7492270  49.9391550  23.9310940  38.3420350  50.0806140  23.0764540
  39.6405280  49.6551710  23.7282150  54.7054410  50.3855460  32.2683180
  54.8317470  50.1467340  31.3500360  54.7475790  49.5540000  32.7405260
  48.5671150  54.0883460  30.8377990  49.0815820  53.9991470  31.6400420
  47.7240230  54.4343160  31.1305900  50.5425550  54.3738800  20.2661990
  50.3826690  54.0841740  21.1643820  50.3772260  53.5978930  19.7307220
  43.0213930  54.1537330  22.0433610  42.8456410  53.2372870  21.8301410
  42.1669670  54.5124620  22.2831410  50.2451680  51.8826360  18.8259990
  49.5516840  51.8803650  18.1662270  50.9874540  51.4585680  18.3954160
  49.8101610  53.5089070  22.9008480  50.2658560  52.7278450  23.2147100
  50.1494130  54.2195890  23.4449660  54.5578420  42.4387920  33.2332920
  53.9422690  42.9467590  32.7048380  54.2374840  41.5386250  33.1758860
  37.5604160  49.2805530  30.0599220  37.7235200  48.8110890  29.2418590
  38.0256610  48.7729090  30.7248060  42.3322930  38.4111290  25.0959790
  41.8891080  39.1920830  24.7644310  42.8907920  38.7341180  25.8030730
  46.6192740  41.2779810  30.6995110  46.1572110  41.4862830  31.5115050
  46.2170850  40.4639160  30.3965780  51.6197250  42.4988760  31.8291770
  50.7690840  42.1994510  32.1500840  51.4599040  42.7430770  30.9175590
  48.7146960  43.9990510  33.9290560  49.0400370  43.1654260  33.5892790
  49.5027290  44.5219030  34.0768890  45.4481750  38.0321990  19.9765620
  44.8235930  38.0281860  20.7018930  45.3611870  37.1652950  19.5801590
  44.3698830  38.9558620  26.9549390  44.6671160  39.8621450  26.8741410
  44.9184390  38.4677400  26.3408960  42.1237150  43.5344860  22.8241040
  41.8978070  43.3182030  23.7287660  41.3429680  43.9673320  22.4787010
  49.3534910  43.5408230  21.4231690  48.7543800  44.2644030  21.2395310
  49.9014520  43.4785010  20.6408140  44.5636360  44.4330440  33.4901310
  44.4679960  43.4925170  33.3401710  45.4068340  44.6545510  33.0949380
  47.9599780  42.1771770  23.4534970  48.3529350  42.4943970  22.6403660
  48.3216630  41.2983650  23.5679490  46.2691950  40.9279080  34.7131830
  45.5790270  40.7351280  35.3477920  47.0124250  41.2113720  35.2456130
  36.9963950  38.7672570  25.6765170  36.7077000  39.3375430  26.3890150
  37.7409710  38.2877020  26.0396400  37.1834180  42.7092690  16.8867890
  37.1008850  43.6523450  17.0282880  36.8317240  42.5667600  16.0080240
  48.5454920  44.7677520  27.5485750  47.8136040  45.2764330  27.8975850
  48.1479260  43.9507500  27.2474530  44.9832310  41.4431720  25.9538240
  44.9868370  41.0021670  25.1042780  45.8783430  41.7649050  26.0610060
  40.8334690  41.3258210  24.9132450  40.4934740  41.8033440  25.6699500
  40.0712010  40.8723330  24.5533550  45.0452460  42.4443800  18.9445000
  45.1665280  42.4030280  19.8930820  44.6600970  43.3067950  18.7891730
  49.0080830  40.2211200  26.9608690  49.0253570  40.6719850  27.8050540
  48.7596410  39.3216840  27.1742130  44.0573960  44.7544940  18.3428300
  43.4890860  44.3063190  17.7164210  44.7662960  45.1137720  17.8093450
  52.4351580  37.6343380  32.7995070  52.7597350  36.9033040  33.3253050
  52.4708090  37.3157020  31.8976060  39.1343140  48.6556960  32.2195030
  38.7497930  48.0150630  32.8177990  39.4455330  49.3593080  32.7889760
  45.2840280  45.5033500  27.7003650  45.6510410  45.0292070  28.4464990
  45.0945340  46.3775070  28.0411990  38.1480770  40.2477190  23.8297120
  37.8627690  39.8832860  24.6675740  38.0859630  39.5157650  23.2160260
  43.0739650  44.5442140  30.0187860  42.7696720  45.4234120  30.2438220
  44.0286110  44.6041930  30.0545300  41.6021440  48.7503130  20.6154710
  40.8283700  48.2100750  20.4553430  42.3316070  48.2309740  20.2772470
  52.3609420  47.7468490  26.4081100  53.0808540  48.2423780  26.0177210
  52.1591240  47.0686380  25.7634970  47.8219360  39.1406450  20.5510490
  47.0083970  38.6419620  20.4755800  47.6281310  39.9804700  20.1346840
  47.7428220  47.8177550  32.2950100  47.6765530  46.8973220  32.0407690
  47.1133360  47.9152990  33.0094740  50.5367750  43.5126100  18.8472650
  51.4247370  43.8243330  18.6723990  50.5072840  42.6398350  18.4553230
  41.6458840  48.4183510  24.2533520  42.1637510  47.6151770  24.1990410
  41.1942860  48.3562650  25.0950350  46.5328340  49.6849790  19.5260820
  46.8744040  50.4292020  19.0304140  45.7041050  49.9980910  19.8885650
  39.1303380  45.3844880  31.1659220  38.7718320  46.0498730  31.7532560
  38.8357940  44.5528430  31.5371840  42.3316500  45.8429120  34.0498770
  42.0316640  45.9886300  33.1526590  43.1027740  45.2834410  33.9572160
  47.6744950  50.6398120  32.0453900  47.6889490  49.7079080  31.8272810
  46.9670050  50.7257880  32.6843670  52.8082020  44.8237940  18.3152510
  52.7245740  45.2552160  17.4648950  53.5276210  45.2836290  18.7479330
  53.8856160  47.2805460  31.3922480  53.1604350  47.8734240  31.1951870
  54.4131620  47.2729000  30.5935850  53.8369270  51.6780200  21.0434640
  53.1945430  51.0235820  21.3178360  53.4499930  52.0835290  20.2675310
  49.4155750  49.0065630  24.8906330  49.7679570  48.4093760  24.2307700
  48.5318080  48.6809860  25.0614580  45.5019030  49.7663320  22.2976740
  46.1890160  50.3132530  22.6784330  44.7151450  50.3104050  22.3326350
  37.6411430  45.3836140  17.7893820  38.5106280  45.6660940  18.0729740
  37.1501750  46.1972010  17.6742630  44.8046240  46.7709350  21.9102100
  45.2609020  47.5814600  22.1362290  44.4534450  46.4532490  22.7420590
  47.1078850  52.2815690  29.1394400  47.7521070  52.4875070  29.8167820
  47.4708290  51.5204090  28.6865250  40.7058020  37.1147000  22.3824620
  40.5772650  37.1064900  23.3309540  39.8820040  37.4530090  22.0315630
  48.3810930  50.2848040  27.8571850  49.0233160  49.5841200  27.9704020
  48.9060280  51.0646480  27.6768740  52.2266650  50.5696660  17.5810990
  52.0004230  49.8527100  18.1735630  51.8362850  50.3209100  16.7432740
  50.1548550  51.0842940  31.0607910  50.4904790  51.6709630  31.7385830
  49.2348890  50.9535650  31.2905700  38.0082680  54.5963520  18.3555450
  38.3680320  55.1952860  17.7012720  37.8675020  55.1423410  19.1290480
  51.8082900  48.4868600  19.2425150  51.5204600  48.9481290  20.0303030
  52.6035070  48.0266370  19.5109370  37.9924540  52.8618380  32.8297850
  38.1015660  51.9213120  32.6893240  37.3405100  53.1273130  32.1811580
  45.9837130  51.1334270  34.2295970  45.6634000  50.4143510  34.7741660
  45.3095490  51.8089340  34.3032030  44.0251300  51.9794720  19.1729120
  44.0161400  52.7124410  18.5573630  43.1049660  51.7326300  19.2656080
  39.6257940  47.2009610  19.9175880  39.0185890  47.9408510  19.9271180
  40.1007290  47.2908970  19.0914080  49.1990730  41.3660430  29.5932770
  49.5671550  40.5455640  29.9212340  48.3388930  41.4262320  30.0088420
  52.5652760  40.3217370  20.4020330  51.9365920  40.4263040  19.6878560
  52.0704680  40.5414150  21.1914210  47.0110900  52.0422960  17.8354310
  47.1122880  51.8386950  16.9056290  46.1112640  51.7881240  18.0402090
  44.5336790  42.6003320  21.8178210  43.8252940  43.0689660  22.2591820
  44.8181270  41.9425330  22.4523400  46.1592720  44.0200020  29.8170740
  46.6577970  44.4945840  30.4822590  46.3015670  43.0963540  30.0240770
  48.5652220  39.3253980  23.2574000  48.4420000  39.3440110  22.3083510
  49.5136780  39.3732920  23.3772400  45.6529010  54.5609280  22.5301980
  45.9070510  54.5230670  21.6081350  44.7041490  54.4342610  22.5230230
  42.7371810  40.9088400  19.1928920  43.5862340  41.3458550  19.1269110
  42.3703080  41.2208660  20.0200980  53.3659580  40.2367980  30.6599130
  52.8633180  40.9773380  30.9992940  54.1816240  40.6251980  30.3435920
  51.6581590  45.4801160  24.1060490  50.7171730  45.4951390  24.2808180
  51.9725660  44.6937120  24.5520790  41.6363230  47.1620760  17.6664450
  42.4026500  47.0502120  18.2289880  41.7137920  46.4658730  17.0141220
  40.3309990  44.5945830  18.3497340  40.4113580  43.6473340  18.4614740
  41.2229740  44.9252710  18.4558000  53.6607170  52.6510010  25.7814750
  53.7854590  53.4741180  26.2538560  54.5272730  52.4400740  25.4338900
  41.1324700  54.7441220  25.4531880  41.8687180  54.1956680  25.7240450
  41.5165620  55.6097230  25.3137870  38.0170180  50.8114790  21.3273390
  37.0909960  51.0535930  21.3178800  38.4826610  51.6389050  21.2058140
  40.1382980  53.9287290  34.6417460  40.9395710  54.2499340  35.0552860
  39.6234800  53.5682870  35.3637370  44.2427010  53.9171530  17.2757450
  45.0355620  54.2060360  16.8239240  43.7231360  53.4863700  16.5969930
  48.9747610  50.0367160  34.5892870  48.3685770  50.0598760  33.8488620
  48.6701720  49.3050200  35.1260120  50.4047980  53.7647450  33.2002280
  51.3569730  53.6805470  33.1502520  50.2576200  54.4289160  33.8736070
  53.2957180  53.1441660  18.6994190  53.0098690  52.7306800  17.8848370
  53.0976730  54.0729370  18.5794710  37.8580790  46.4160750  33.5853510
  38.3619810  45.8368030  34.1569740  37.1188210  46.7000980  34.1229880
  44.7604410  49.1374940  17.1399800  44.6555050  48.5227290  17.8661180
  44.5928630  48.6140830  16.3562810  44.9118730  47.8231740  33.1189030
  44.1464400  48.3916740  33.0343700  45.0934690  47.5307950  32.2257260
  48.0007140  48.1994970  17.7441790  47.4517240  48.6464270  18.3884530
  48.6226400  47.6944220  18.2679460  52.0542080  49.5537070  33.6764050
  52.7951550  49.8912830  33.1731510  51.2914760  49.7229130  33.1233820
  39.8903870  44.5590340  34.4803580  39.9309210  44.2604210  35.3888810
  40.7449370  44.9597950  34.3211100  43.6682260  47.1585890  19.6407090
  44.0898680  46.9925760  20.4838480  43.7933100  46.3486120  19.1462230
  41.8309680  43.1382440  32.4478070  41.3006140  42.6473390  31.8201410
  42.4997750  43.5666640  31.9136000  46.1809900  46.1823500  16.8884190
  46.7015560  45.4672520  16.5225340  46.8278300  46.8209370  17.1884700
  50.7287740  47.6051900  32.2119260  51.1428760  47.7596980  33.0609680
  49.7938740  47.7307120  32.3745040  51.2009910  44.9448060  34.2158410
  51.7830680  44.1900380  34.1278890  51.3771680  45.4755500  33.4389890
  45.0843420  38.6618050  29.5602750  44.6360720  38.6842310  28.7148300
  44.4508620  38.2637070  30.1573050  45.4902970  47.5572380  30.1815190
  45.9091080  48.4005110  30.0091430  44.5711600  47.6944420  29.9521970
  47.8266870  45.2888560  31.5653030  47.9463080  44.6929700  32.3047870
  48.6860870  45.3258250  31.1454330  50.1654770  45.8425750  30.1415540
  49.6389990  46.3668370  29.5380680  50.5086110  46.4753140  30.7725270
  42.5641160  43.2319120  16.5865250  42.3630220  42.3686480  16.9478590
  42.3933210  43.1452480  15.6486850  43.3410390  53.8625390  31.2972920
  42.8031480  54.5871450  30.9781620  43.5944350  53.3855730  30.5070260
  44.5935640  41.8309910  32.8228850  45.1835330  41.5225760  33.5106670
  43.7755880  41.3589660  32.9788750  49.4129070  41.4475720  33.0561870
  48.7244590  40.7857260  32.9911860  50.1335090  41.0013990  33.5010330
  50.0429470  38.0427350  19.1152130  50.3231760  37.1995250  19.4711550
  49.2695200  38.2750460  19.6290880  41.3623960  40.3319740  16.5743130
  41.6649860  40.3387170  15.6662280  42.1018550  39.9817600  17.0710790
  46.1972600  55.0976600  31.5559570  46.1231300  56.0011740  31.8631940
  45.2951440  54.7788500  31.5281640  44.5808890  39.2754360  17.5599330
  44.2330890  38.5978350  16.9801780  44.7821660  38.8143870  18.3742720
  46.7457930  54.2635110  19.1785930  47.6408720  54.6020080  19.2004690
  46.7775560  53.5414520  18.5510210  40.3854090  49.6362160  17.4072930
  40.8228960  50.1791830  18.0630510  40.8701820  48.8109110  17.4169270
  37.5999890  52.4251190  24.8593190  37.9302900  51.5572250  24.6271830
  38.0290890  52.6309710  25.6898150  42.1961810  50.7560200  22.5195160
  41.8957350  50.6325170  23.4199070  42.0899300  49.8968790  22.1110890
  38.0890100  53.2921780  27.5974820  37.6521090  53.4722580  28.4298970
  38.6567780  54.0496400  27.4556540  53.7252280  52.7938780  31.8852130
  53.1254270  52.8531340  31.1416050  53.8546180  51.8543760  32.0148980
  54.9653730  50.5356600  17.2221840  54.1346690  50.6033250  17.6929070
  55.1425560  51.4260720  16.9188700  54.4210190  47.2804080  19.7256040
  55.1829100  47.8500730  19.8315730  54.4364560  46.7131280  20.4964350
  37.9214530  45.8042010  23.9563700  37.2663370  45.5353650  23.3123400
  38.7592480  45.6946490  23.5065680  55.4270160  48.1354180  24.5697970
  55.7978990  47.3521500  24.1633940  56.0672090  48.8243280  24.3915270
  52.4103920  49.5190760  29.9828290  51.5963760  49.9487920  30.2454080
  52.8178120  50.1309170  29.3697340  54.4729360  47.5738450  16.8828560
  54.7478200  48.4817330  16.7547780  54.2840100  47.5100980  17.8190550
  50.8704970  40.5983300  18.1782190  51.2889850  40.4114280  17.3378850
  50.5641030  39.7462350  18.4885120  54.3694700  45.5107440  21.8757990
  53.9938300  44.7435370  21.4439280  53.6397820  45.8930140  22.3632920
  38.9590460  46.1894580  28.4967040  39.3263500  46.1021980  29.3763060
  38.3901280  45.4261130  28.3973900  53.7594320  44.6578960  31.5097510
  53.5280410  44.4291710  30.6095460  54.0198870  45.5778510  31.4642400
  38.5106460  43.1003670  32.4025460  37.6162510  43.0670430  32.7419170
  39.0504010  43.2990460  33.1676710  52.1982390  39.8835390  34.2877210
  53.0752570  39.8918790  34.6711210  52.2103230  39.1466230  33.6769560
  37.1352610  43.0140940  19.8989030  36.2316690  43.2771140  19.7240690
  37.6193230  43.2852110  19.1188990  53.6445660  43.7364930  25.1765230
  54.1683140  43.2427580  24.5455400  54.2305080  43.8715290  25.9212800
  53.8235380  43.8204800  28.6984780  52.8738090  43.7868340  28.8129770
  54.0048390  44.7304910  28.4634550  39.6779820  42.0706480  17.8083410
  40.3871520  41.6489700  17.3230690  38.9619760  42.1381710  17.1766760
  39.3253980  38.1245810  16.8486060  40.0482110  38.6654750  17.1667280
  39.5978500  37.8509230  15.9727600  53.1345630  42.9938280  21.1157640
  53.6304750  42.7609150  21.9006520  52.9361700  42.1550120  20.6995280
  39.0146170  37.3752000  26.7508680  39.6622360  36.8249380  26.3103840
  39.4348010  37.6295150  27.5724490  54.5632790  41.6299230  23.6495320
  54.4532070  41.4755270  24.5877590  55.3240380  41.1020170  23.4070730
  52.9098510  37.5693360  30.1078320  53.5470730  38.1827500  30.4737510
  53.0573400  37.6054020  29.1627550  55.4523060  39.4607150  16.8901460
  56.3772370  39.3288330  16.6819750  55.4298850  39.5399970  17.8437910
  55.5261550  40.2317810  19.5158170  54.7313050  40.1662930  20.0451080
  55.7304830  41.1668450  19.5043520  52.4679970  54.2709360  23.5096560
  53.0639040  53.9493930  22.8330980  52.7258120  53.7981180  24.3009830
  38.7678170  37.5307670  29.4934000  38.4192990  37.9871490  30.2592180
  38.4365870  36.6364800  29.5756430  40.3742540  50.7027270  33.6587190
  40.3312170  50.3320180  34.5401650  40.5053550  51.6404840  33.7989010
  44.0748570  52.2586860  29.2596910  43.8339930  52.5261420  28.3727430
  45.0151210  52.4292590  29.3147770  46.2802990  38.7219550  33.0153420
  46.2191880  39.3141380  33.7648830  47.2203370  38.6145510  32.8703680
  48.9177550  38.3789610  32.6545710  49.5317960  38.6968900  31.9926790
  49.4627110  37.8938200  33.2741570  55.3352730  54.2781240  30.0607550
  54.8411010  54.6750110  29.3434680  54.7266020  53.6530450  30.4544830
  40.2130570  53.6489520  30.7784970  39.6190890  53.5174220  31.5175010
  40.2054410  52.8127660  30.3127070  49.6585590  36.9421750  28.9815000
  48.7845430  37.2756860  28.7787930  49.5496340  36.4694930  29.8066870
  50.5657570  39.1492620  30.3656720  50.2370930  38.3344380  29.9858450
  51.5139870  39.1062430  30.2422410  53.0192180  54.9204660  27.3394290
  52.5595150  55.6720470  26.9652310  52.3904640  54.2011130  27.2809090
  39.8442800  51.0147900  29.7293010  39.1176860  50.3953190  29.6618960
  39.9051950  51.4088510  28.8591090  43.4487900  53.2292900  26.5142420
  43.9652920  52.6180260  25.9890680  44.0985280  53.7321680  27.0053430
  46.1883400  54.1201390  27.3411400  46.4761210  53.8655690  26.4644410
  46.7006620  53.5678750  27.9316970  47.4060410  37.8591590  27.9207910
  46.6232200  38.3337090  28.2004670  47.1123340  36.9546420  27.8121090
  51.9581480  38.5614690  25.9657000  52.3989570  38.5059790  25.1178600
  51.6889070  39.4772700  26.0367180  53.8220050  38.1929930  23.9765820
  53.7608450  37.2491150  23.8296840  54.6012080  38.3010020  24.5219280
  38.1272800  54.3322290  22.9389770  37.9594840  53.6992970  23.6371660
  37.2607310  54.5381690  22.5883960  38.7500820  38.1639070  20.4421630
  39.5080180  38.2767950  19.8685660  38.2877990  39.0008270  20.3965060
  45.2914630  40.2778340  23.4323940  44.4789140  39.9035230  23.0919820
  45.7956270  39.5223420  23.7345130  49.7939610  36.9420790  24.6707010
  50.3968980  37.5141000  25.1455530  49.0532600  37.5060230  24.4480910
  52.9374210  37.3442350  19.9447290  53.1324840  38.2425800  20.2114720
  52.1504080  37.1129430  20.4380240  39.7335500  53.0255520  20.3839910
  39.2083120  53.4063550  19.6801870  39.6580080  53.6506290  21.1049620
  41.1225970  38.6903120  18.9823600  41.6518730  37.9032920  18.8531550
  41.7554290  39.3694310  19.2159130  43.3163810  38.4278260  22.0368990
  42.6866550  37.7265570  22.2039120  42.7768950  39.1882390  21.8202150
  46.2555760  55.0417490  34.7079600  47.1823070  54.8061760  34.7515560
  46.2406190  55.8689490  34.2265630  54.4900820  54.5843060  21.7053850
  54.6653010  53.8980800  21.0614770  53.7922390  55.1090110  21.3130520
  43.4419370  37.7062240  34.4721480  43.1603640  38.2095840  33.7082300
  43.8239070  36.9083990  34.1063610  42.3328470  54.9737900  19.2589160
  43.0647290  54.6897180  18.7113050  42.5922140  54.7351180  20.1488540
  41.4943260  51.0902630  19.2635490  40.8652140  51.5587730  19.8121320
  41.6091090  50.2451850  19.6981680  50.0434830  37.1215820  35.0501950
  49.9300280  37.4410430  35.9453470  50.8604570  37.5228330  34.7539230
  52.8233320  54.2687350  34.5320640  53.6158640  53.7736580  34.3246600
  53.1166470  54.9477490  35.1396250  48.9492980  45.1408290   5.4136690
  48.8687030  44.2262900   5.1428400  48.5357400  45.6375360   4.7076400
  47.0811020  46.9187310   7.2945960  46.3053120  46.4387750   7.5844530
  47.7323950  46.2392960   7.1202120  41.0976850  47.2307120   8.1721720
  40.2661730  46.9755830   8.5718230  41.7057830  47.3017890   8.9079640
  51.1018450  51.3247500   6.0745090  50.6399980  50.5534740   6.4032260
  51.9144000  51.3513570   6.5797540  41.0778110  51.2647210   8.3679740
  41.3806150  50.3744950   8.1889960  41.8221700  51.8217430   8.1401990
  37.4701810  44.7914660   7.8403810  38.0417920  44.0236860   7.8407450
  37.4703350  45.0903420   6.9310420  47.3281760  53.6105510   5.6949080
  46.7093200  54.0663010   5.1243520  48.1833540  53.7656970   5.2938780
  46.5220010  49.5944500   7.3016120  46.4528290  48.6534440   7.1405250
  47.2839870  49.6845910   7.8738690  38.7126680  40.1999020   9.6272740
  38.5329520  39.3024770   9.9075500  38.3106760  40.7470890  10.3019690
  47.5525180  42.4014880   7.5285050  47.9290000  41.5286760   7.4158720
  47.4544690  42.7373580   6.6375490  41.6830190  40.7740510   2.9902490
  41.7896940  41.6744240   3.2971250  40.7722550  40.7258480   2.6997140
  51.3349300  39.8965320   4.4613390  52.1558920  39.4061890   4.5038870
  51.3683380  40.4862980   5.2145230  39.3313350  42.6959520   8.2355080
  40.0123460  42.9597890   8.8542480  39.0161400  41.8560390   8.5693090
  43.5237920  43.7426880   7.3227670  44.0316140  44.2407850   7.9632690
  44.0551160  42.9662080   7.1467030  55.6248850  41.9132070  11.0257020
  54.9201020  42.3013780  10.5072130  55.8906770  42.6082360  11.6277950
  41.8074020  38.3825440  11.5891090  41.8092460  38.8997830  10.7836990
  40.9778330  37.9055620  11.5661020  48.1945110  48.4944750   3.0880990
  47.5762380  48.9594200   2.5243710  48.7068360  49.1872230   3.5050500
  43.0576870  48.0220620   9.7664590  42.7246250  48.6489540  10.4085660
  43.2343550  48.5482500   8.9866260  51.5710780  41.8365700   7.2340930
  50.8666350  42.1250590   7.8144040  51.9322940  42.6465810   6.8740490
  41.4889350  40.0935400   9.5961540  41.8306160  40.9377450   9.3015410
  40.5505160  40.2419140   9.7126880  42.2695970  49.9901420  11.5813770
  42.8869970  50.6652500  11.2998220  41.4089090  50.3989400  11.4901270
  53.1873560  51.4540830   9.4968410  52.5037080  52.1239940   9.4885080
  53.7267850  51.6521480   8.7313270  54.6397700  41.2820490   7.6250140
  53.6922610  41.3159470   7.7565570  54.9647690  42.0959440   8.0099500
  45.1717240  37.5817670   5.9206130  45.4792220  37.0264560   5.2041630
  44.2417940  37.7162130   5.7379120  50.7232300  53.2984960   8.2113590
  50.7359460  52.8947250   7.3435850  50.1707520  54.0732250   8.1075020
  52.0177720  50.0201180   3.3003760  51.9074050  49.0775510   3.4253180
  52.0145970  50.3816820   4.1866520  50.1217740  48.2014800   9.5396200
  50.5386530  47.9874910   8.7049660  50.8457560  48.4587590  10.1104820
  47.5598000  45.6466500   2.6566250  46.6327280  45.5803880   2.8854720
  47.7122820  46.5846630   2.5421490  54.0679840  46.6002020   9.6312440
  53.2398470  46.6695110   9.1562570  54.6630320  47.1856330   9.1628270
  51.5895290  47.2086800   3.1601500  50.9707710  46.8706350   2.5127800
  51.5719740  46.5646560   3.8680690  51.0321850  43.3871340  10.5767310
  50.6193030  44.2125050  10.8307300  50.2997800  42.8016380  10.3843670
  43.1654640  46.1731240   5.4385980  42.7611640  45.4608490   4.9431880
  43.2517760  45.8284480   6.3274020  43.6336340  49.8598800   7.6025190
  43.3364630  49.2544270   6.9232970  44.5836160  49.8976110   7.4914550
  41.8783260  42.9474450   9.2185020  42.4297850  43.0569790   8.4438270
  42.3926770  43.3212050   9.9340250  51.7221950  53.4330670  11.2648290
  51.2452510  54.2402860  11.0720900  51.0383740  52.7809000  11.4174500
  42.7254770  49.5980490  14.2532990  41.8283300  49.8220460  14.5006390
  42.7507640  49.7215430  13.3044390  41.5525990  46.4693810  12.8290360
  41.4133760  47.3416610  13.1977760  40.6707350  46.1266620  12.6838300
  47.8755370  51.3869680   4.1355490  48.3151280  52.1294010   3.7210880
  47.8142260  51.6296250   5.0594450  43.3506340  52.4115510  15.0375510
  43.3221770  52.8158460  14.1703940  43.1871310  51.4825870  14.8747110
  39.8659270  45.0676220   2.9392630  39.7456870  45.7938310   2.3273900
  39.5560160  44.2979130   2.4620540  55.3021160  53.1942610  16.3339680
  55.7780880  53.6725500  17.0128760  55.9228320  53.1260100  15.6085180
  37.5044640  48.2391360   8.7461270  37.5825060  48.3740130   7.8016990
  38.1186320  47.5307250   8.9389390  38.7492270  49.9391550   5.1567450
  38.3420350  50.0806140   4.3021050  39.6405280  49.6551710   4.9538660
  54.7054410  50.3855460  13.4939690  54.8317470  50.1467340  12.5756870
  54.7475790  49.5540000  13.9661770  48.5671150  54.0883460  12.0634500
  49.0815820  53.9991470  12.8656930  47.7240230  54.4343160  12.3562410
  43.0213930  54.1537330   3.2690120  42.8456410  53.2372870   3.0557920
  42.1669670  54.5124620   3.5087920  49.8101610  53.5089070   4.1264990
  50.2658560  52.7278450   4.4403610  50.1494130  54.2195890   4.6706170
  54.5578420  42.4387920  14.4589430  53.9422690  42.9467590  13.9304890
  54.2374840  41.5386250  14.4015370  37.5604160  49.2805530  11.2855730
  37.7235200  48.8110890  10.4675100  38.0256610  48.7729090  11.9504570
  42.3322930  38.4111290   6.3216300  41.8891080  39.1920830   5.9900820
  42.8907920  38.7341180   7.0287240  46.6192740  41.2779810  11.9251620
  46.1572110  41.4862830  12.7371560  46.2170850  40.4639160  11.6222290
  51.6197250  42.4988760  13.0548280  50.7690840  42.1994510  13.3757350
  51.4599040  42.7430770  12.1432100  48.7146960  43.9990510  15.1547070
  49.0400370  43.1654260  14.8149300  49.5027290  44.5219030  15.3025400
  44.3698830  38.9558620   8.1805900  44.6671160  39.8621450   8.0997920
  44.9184390  38.4677400   7.5665470  42.1237150  43.5344860   4.0497550
  41.8978070  43.3182030   4.9544170  41.3429680  43.9673320   3.7043520
  49.3534910  43.5408230   2.6488200  48.7543800  44.2644030   2.4651820
  49.9014520  43.4785010   1.8664650  44.5636360  44.4330440  14.7157820
  44.4679960  43.4925170  14.5658220  45.4068340  44.6545510  14.3205890
  47.9599780  42.1771770   4.6791480  48.3529350  42.4943970   3.8660170
  48.3216630  41.2983650   4.7936000  39.6946900  40.8444110  12.8691600
  39.3010290  41.6919320  13.0764380  39.0065300  40.2070480  13.0600240
  46.2691950  40.9279080  15.9388340  45.5790270  40.7351280  16.5734430
  47.0124250  41.2113720  16.4712640  36.9963950  38.7672570   6.9021680
  36.7077000  39.3375430   7.6146660  37.7409710  38.2877020   7.2652910
  48.5454920  44.7677520   8.7742260  47.8136040  45.2764330   9.1232360
  48.1479260  43.9507500   8.4731040  44.9832310  41.4431720   7.1794750
  44.9868370  41.0021670   6.3299290  45.8783430  41.7649050   7.2866570
  40.8334690  41.3258210   6.1388960  40.4934740  41.8033440   6.8956010
  40.0712010  40.8723330   5.7790060  49.0080830  40.2211200   8.1865200
  49.0253570  40.6719850   9.0307050  48.7596410  39.3216840   8.3998640
  52.4351580  37.6343380  14.0251580  52.7597350  36.9033040  14.5509560
  52.4708090  37.3157020  13.1232570  39.1343140  48.6556960  13.4451540
  38.7497930  48.0150630  14.0434500  39.4455330  49.3593080  14.0146270
  45.2840280  45.5033500   8.9260160  45.6510410  45.0292070   9.6721500
  45.0945340  46.3775070   9.2668500  38.1480770  40.2477190   5.0553630
  37.8627690  39.8832860   5.8932250  38.0859630  39.5157650   4.4416770
  43.0739650  44.5442140  11.2444370  42.7696720  45.4234120  11.4694730
  44.0286110  44.6041930  11.2801810  41.6021440  48.7503130   1.8411220
  40.8283700  48.2100750   1.6809940  42.3316070  48.2309740   1.5028980
  52.3609420  47.7468490   7.6337610  53.0808540  48.2423780   7.2433720
  52.1591240  47.0686380   6.9891480  47.8219360  39.1406450   1.7767000
  47.0083970  38.6419620   1.7012310  47.6281310  39.9804700   1.3603350
  47.7428220  47.8177550  13.5206610  47.6765530  46.8973220  13.2664200
  47.1133360  47.9152990  14.2351250  41.6458840  48.4183510   5.4790030
  42.1637510  47.6151770   5.4246920  41.1942860  48.3562650   6.3206860
  39.1303380  45.3844880  12.3915730  38.7718320  46.0498730  12.9789070
  38.8357940  44.5528430  12.7628350  42.3316500  45.8429120  15.2755280
  42.0316640  45.9886300  14.3783100  43.1027740  45.2834410  15.1828670
  47.6744950  50.6398120  13.2710410  47.6889490  49.7079080  13.0529320
  46.9670050  50.7257880  13.9100180  53.8856160  47.2805460  12.6178990
  53.1604350  47.8734240  12.4208380  54.4131620  47.2729000  11.8192360
  53.8369270  51.6780200   2.2691150  53.1945430  51.0235820   2.5434870
  53.4499930  52.0835290   1.4931820  49.4155750  49.0065630   6.1162840
  49.7679570  48.4093760   5.4564210  48.5318080  48.6809860   6.2871090
  45.5019030  49.7663320   3.5233250  46.1890160  50.3132530   3.9040840
  44.7151450  50.3104050   3.5582860  44.8046240  46.7709350   3.1358610
  45.2609020  47.5814600   3.3618800  44.4534450  46.4532490   3.9677100
  47.1078850  52.2815690  10.3650910  47.7521070  52.4875070  11.0424330
  47.4708290  51.5204090   9.9121760  40.7058020  37.1147000   3.6081130
  40.5772650  37.1064900   4.5566050  39.8820040  37.4530090   3.2572140
  48.3810930  50.2848040   9.0828360  49.0233160  49.5841200   9.1960530
  48.9060280  51.0646480   8.9025250  50.1548550  51.0842940  12.2864420
  50.4904790  51.6709630  12.9642340  49.2348890  50.9535650  12.5162210
  37.7051950  38.8738120  13.0687830  36.9910470  39.0735040  13.6740440
  38.1246990  38.0977690  13.4402630  37.9924540  52.8618380  14.0554360
  38.1015660  51.9213120  13.9149750  37.3405100  53.1273130  13.4068090
  45.9837130  51.1334270  15.4552480  45.6634000  50.4143510  15.9998170
  45.3095490  51.8089340  15.5288540  49.1990730  41.3660430  10.8189280
  49.5671550  40.5455640  11.1468850  48.3388930  41.4262320  11.2344930
  44.5336790  42.6003320   3.0434720  43.8252940  43.0689660   3.4848330
  44.8181270  41.9425330   3.6779910  46.1592720  44.0200020  11.0427250
  46.6577970  44.4945840  11.7079100  46.3015670  43.0963540  11.2497280
  48.5652220  39.3253980   4.4830510  48.4420000  39.3440110   3.5340020
  49.5136780  39.3732920   4.6028910  45.6529010  54.5609280   3.7558490
  45.9070510  54.5230670   2.8337860  44.7041490  54.4342610   3.7486740
  53.3659580  40.2367980  11.8855640  52.8633180  40.9773380  12.2249450
  54.1816240  40.6251980  11.5692430  51.6581590  45.4801160   5.3317000
  50.7171730  45.4951390   5.5064690  51.9725660  44.6937120   5.7777300
  53.6607170  52.6510010   7.0071260  53.7854590  53.4741180   7.4795070
  54.5272730  52.4400740   6.6595410  41.1324700  54.7441220   6.6788390
  41.8687180  54.1956680   6.9496960  41.5165620  55.6097230   6.5394380
  38.0170180  50.8114790   2.5529900  37.0909960  51.0535930   2.5435310
  38.4826610  51.6389050   2.4314650  40.1382980  53.9287290  15.8673970
  40.9395710  54.2499340  16.2809370  39.6234800  53.5682870  16.5893880
  48.9747610  50.0367160  15.8149380  48.3685770  50.0598760  15.0745130
  48.6701720  49.3050200  16.3516630  50.4047980  53.7647450  14.4258790
  51.3569730  53.6805470  14.3759030  50.2576200  54.4289160  15.0992580
  37.8580790  46.4160750  14.8110020  38.3619810  45.8368030  15.3826250
  37.1188210  46.7000980  15.3486390  44.9118730  47.8231740  14.3445540
  44.1464400  48.3916740  14.2600210  45.0934690  47.5307950  13.4513770
  52.0542080  49.5537070  14.9020560  52.7951550  49.8912830  14.3988020
  51.2914760  49.7229130  14.3490330  39.8903870  44.5590340  15.7060090
  39.9309210  44.2604210  16.6145320  40.7449370  44.9597950  15.5467610
  41.8309680  43.1382440  13.6734580  41.3006140  42.6473390  13.0457920
  42.4997750  43.5666640  13.1392510  50.7287740  47.6051900  13.4375770
  51.1428760  47.7596980  14.2866190  49.7938740  47.7307120  13.6001550
  51.2009910  44.9448060  15.4414920  51.7830680  44.1900380  15.3535400
  51.3771680  45.4755500  14.6646400  42.3181980  40.1044810  13.7531870
  42.2238850  39.4865560  13.0282740  41.7379370  40.8311100  13.5261780
  45.0843420  38.6618050  10.7859260  44.6360720  38.6842310   9.9404810
  44.4508620  38.2637070  11.3829560  45.4902970  47.5572380  11.4071700
  45.9091080  48.4005110  11.2347940  44.5711600  47.6944420  11.1778480
  47.8266870  45.2888560  12.7909540  47.9463080  44.6929700  13.5304380
  48.6860870  45.3258250  12.3710840  50.1654770  45.8425750  11.3672050
  49.6389990  46.3668370  10.7637190  50.5086110  46.4753140  11.9981780
  43.3410390  53.8625390  12.5229430  42.8031480  54.5871450  12.2038130
  43.5944350  53.3855730  11.7326770  44.5935640  41.8309910  14.0485360
  45.1835330  41.5225760  14.7363180  43.7755880  41.3589660  14.2045260
  49.4129070  41.4475720  14.2818380  48.7244590  40.7857260  14.2168370
  50.1335090  41.0013990  14.7266840  46.1972600  55.0976600  12.7816080
  46.1231300  56.0011740  13.0888450  45.2951440  54.7788500  12.7538150
  37.5999890  52.4251190   6.0849700  37.9302900  51.5572250   5.8528340
  38.0290890  52.6309710   6.9154660  42.1961810  50.7560200   3.7451670
  41.8957350  50.6325170   4.6455580  42.0899300  49.8968790   3.3367400
  38.0890100  53.2921780   8.8231330  37.6521090  53.4722580   9.6555480
  38.6567780  54.0496400   8.6813050  53.7252280  52.7938780  13.1108640
  53.1254270  52.8531340  12.3672560  53.8546180  51.8543760  13.2405490
  37.9214530  45.8042010   5.1820210  37.2663370  45.5353650   4.5379910
  38.7592480  45.6946490   4.7322190  55.4270160  48.1354180   5.7954480
  55.7978990  47.3521500   5.3890450  56.0672090  48.8243280   5.6171780
  52.4103920  49.5190760  11.2084800  51.5963760  49.9487920  11.4710590
  52.8178120  50.1309170  10.5953850  54.3694700  45.5107440   3.1014500
  53.9938300  44.7435370   2.6695790  53.6397820  45.8930140   3.5889430
  38.9590460  46.1894580   9.7223550  39.3263500  46.1021980  10.6019570
  38.3901280  45.4261130   9.6230410  53.7594320  44.6578960  12.7354020
  53.5280410  44.4291710  11.8351970  54.0198870  45.5778510  12.6898910
  38.5106460  43.1003670  13.6281970  37.6162510  43.0670430  13.9675680
  39.0504010  43.2990460  14.3933220  52.1982390  39.8835390  15.5133720
  53.0752570  39.8918790  15.8967720  52.2103230  39.1466230  14.9026070
  53.6445660  43.7364930   6.4021740  54.1683140  43.2427580   5.7711910
  54.2305080  43.8715290   7.1469310  53.8235380  43.8204800   9.9241290
  52.8738090  43.7868340  10.0386280  54.0048390  44.7304910   9.6891060
  53.1345630  42.9938280   2.3414150  53.6304750  42.7609150   3.1263030
  52.9361700  42.1550120   1.9251790  39.0146170  37.3752000   7.9765190
  39.6622360  36.8249380   7.5360350  39.4348010  37.6295150   8.7981000
  54.5632790  41.6299230   4.8751830  54.4532070  41.4755270   5.8134100
  55.3240380  41.1020170   4.6327240  52.9098510  37.5693360  11.3334830
  53.5470730  38.1827500  11.6994020  53.0573400  37.6054020  10.3884060
  52.4679970  54.2709360   4.7353070  53.0639040  53.9493930   4.0587490
  52.7258120  53.7981180   5.5266340  38.7678170  37.5307670  10.7190510
  38.4192990  37.9871490  11.4848690  38.4365870  36.6364800  10.8012940
  40.3742540  50.7027270  14.8843700  40.3312170  50.3320180  15.7658160
  40.5053550  51.6404840  15.0245520  44.0748570  52.2586860  10.4853420
  43.8339930  52.5261420   9.5983940  45.0151210  52.4292590  10.5404280
  46.2802990  38.7219550  14.2409930  46.2191880  39.3141380  14.9905340
  47.2203370  38.6145510  14.0960190  48.9177550  38.3789610  13.8802220
  49.5317960  38.6968900  13.2183300  49.4627110  37.8938200  14.4998080
  55.3352730  54.2781240  11.2864060  54.8411010  54.6750110  10.5691190
  54.7266020  53.6530450  11.6801340  39.4398810  37.0583870  13.9941280
  39.9881800  36.8771920  13.2307390  39.5054120  36.2677980  14.5297590
  40.2130570  53.6489520  12.0041480  39.6190890  53.5174220  12.7431520
  40.2054410  52.8127660  11.5383580  49.6585590  36.9421750  10.2071510
  48.7845430  37.2756860  10.0044440  49.5496340  36.4694930  11.0323380
  50.5657570  39.1492620  11.5913230  50.2370930  38.3344380  11.2114960
  51.5139870  39.1062430  11.4678920  53.0192180  54.9204660   8.5650800
  52.5595150  55.6720470   8.1908820  52.3904640  54.2011130   8.5065600
  39.8442800  51.0147900  10.9549520  39.1176860  50.3953190  10.8875470
  39.9051950  51.4088510  10.0847600  43.4487900  53.2292900   7.7398930
  43.9652920  52.6180260   7.2147190  44.0985280  53.7321680   8.2309940
  46.1883400  54.1201390   8.5667910  46.4761210  53.8655690   7.6900920
  46.7006620  53.5678750   9.1573480  47.4060410  37.8591590   9.1464420
  46.6232200  38.3337090   9.4261180  47.1123340  36.9546420   9.0377600
  51.9581480  38.5614690   7.1913510  52.3989570  38.5059790   6.3435110
  51.6889070  39.4772700   7.2623690  53.8220050  38.1929930   5.2022330
  53.7608450  37.2491150   5.0553350  54.6012080  38.3010020   5.7475790
  38.1272800  54.3322290   4.1646280  37.9594840  53.6992970   4.8628170
  37.2607310  54.5381690   3.8140470  45.2914630  40.2778340   4.6580450
  44.4789140  39.9035230   4.3176330  45.7956270  39.5223420   4.9601640
  49.7939610  36.9420790   5.8963520  50.3968980  37.5141000   6.3712040
  49.0532600  37.5060230   5.6737420  43.3163810  38.4278260   3.2625500
  42.6866550  37.7265570   3.4295630  42.7768950  39.1882390   3.0458660
  46.2555760  55.0417490  15.9336110  47.1823070  54.8061760  15.9772070
  46.2406190  55.8689490  15.4522140  54.4900820  54.5843060   2.9310360
  54.6653010  53.8980800   2.2871280  53.7922390  55.1090110   2.5387030
  43.4419370  37.7062240  15.6977990  43.1603640  38.2095840  14.9338810
  43.8239070  36.9083990  15.3320120  50.0434830  37.1215820  16.2758460
  49.9300280  37.4410430  17.1709980  50.8604570  37.5228330  15.9795740
  52.8233320  54.2687350  15.7577150  53.6158640  53.7736580  15.5503110
  53.1166470  54.9477490  16.3652760  48.9492980  26.3664800  61.7367160
  48.8687030  25.4519410  61.4658870  48.5357400  26.8631870  61.0306870
  47.0811020  28.1443820  63.6176430  46.3053120  27.6644260  63.9075000
  47.7323950  27.4649470  63.4432590  41.0976850  28.4563630  64.4952190
  40.2661730  28.2012340  64.8948700  41.7057830  28.5274400  65.2310110
  51.1018450  32.5504010  62.3975560  50.6399980  31.7791250  62.7262730
  51.9144000  32.5770080  62.9028010  41.0778110  32.4903720  64.6910210
  41.3806150  31.6001460  64.5120430  41.8221700  33.0473940  64.4632460
  39.5068800  23.4165520  58.2794580  38.6185500  23.7581490  58.1774460
  39.7909990  23.2165840  57.3875410  37.4701810  26.0171170  64.1634280
  38.0417920  25.2493370  64.1637920  37.4703350  26.3159930  63.2540890
  47.3281760  34.8362020  62.0179550  46.7093200  35.2919520  61.4473990
  48.1833540  34.9913480  61.6169250  46.5220010  30.8201010  63.6246590
  46.4528290  29.8790950  63.4635720  47.2839870  30.9102420  64.1969160
  38.7126680  21.4255530  65.9503210  38.5329520  20.5281280  66.2305970
  38.3106760  21.9727400  66.6250160  47.5525180  23.6271390  63.8515520
  47.9290000  22.7543270  63.7389190  47.4544690  23.9630090  62.9605960
  41.6830190  21.9997020  59.3132960  41.7896940  22.9000750  59.6201720
  40.7722550  21.9514990  59.0227610  51.3349300  21.1221830  60.7843860
  52.1558920  20.6318400  60.8269340  51.3683380  21.7119490  61.5375700
  39.3313350  23.9216030  64.5585550  40.0123460  24.1854400  65.1772950
  39.0161400  23.0816900  64.8923560  43.5237920  24.9683390  63.6458140
  44.0316140  25.4664360  64.2863160  44.0551160  24.1918590  63.4697500
  55.6248850  23.1388580  67.3487490  54.9201020  23.5270290  66.8302600
  55.8906770  23.8338870  67.9508420  41.8074020  19.6081950  67.9121560
  41.8092460  20.1254340  67.1067460  40.9778330  19.1312130  67.8891490
  48.1945110  29.7201260  59.4111460  47.5762380  30.1850710  58.8474180
  48.7068360  30.4128740  59.8280970  43.0576870  29.2477130  66.0895060
  42.7246250  29.8746050  66.7316130  43.2343550  29.7739010  65.3096730
  51.5710780  23.0622210  63.5571400  50.8666350  23.3507100  64.1374510
  51.9322940  23.8722320  63.1970960  41.4889350  21.3191910  65.9192010
  41.8306160  22.1633960  65.6245880  40.5505160  21.4675650  66.0357350
  42.2695970  31.2157930  67.9044240  42.8869970  31.8909010  67.6228690
  41.4089090  31.6245910  67.8131740  37.5628310  30.4057790  56.7851090
  37.1856290  30.8944890  56.0535990  37.8201380  31.0783070  57.4157620
  53.1873560  32.6797340  65.8198880  52.5037080  33.3496450  65.8115550
  53.7267850  32.8777990  65.0543740  54.6397700  22.5077000  63.9480610
  53.6922610  22.5415980  64.0796040  54.9647690  23.3215950  64.3329970
  45.1717240  18.8074180  62.2436600  45.4792220  18.2521070  61.5272100
  44.2417940  18.9418640  62.0609590  50.7232300  34.5241470  64.5344060
  50.7359460  34.1203760  63.6666320  50.1707520  35.2988760  64.4305490
  52.0177720  31.2457690  59.6234230  51.9074050  30.3032020  59.7483650
  52.0145970  31.6073330  60.5096990  50.1217740  29.4271310  65.8626670
  50.5386530  29.2131420  65.0280130  50.8457560  29.6844100  66.4335290
  47.5598000  26.8723010  58.9796720  46.6327280  26.8060390  59.2085190
  47.7122820  27.8103140  58.8651960  47.5467080  23.1440010  55.9763880
  46.6070750  23.3053970  56.0616340  47.8650340  23.8625690  55.4299870
  54.0679840  27.8258530  65.9542910  53.2398470  27.8951620  65.4793040
  54.6630320  28.4112840  65.4858740  51.5895290  28.4343310  59.4831970
  50.9707710  28.0962860  58.8358270  51.5719740  27.7903070  60.1911160
  51.0321850  24.6127850  66.8997780  50.6193030  25.4381560  67.1537770
  50.2997800  24.0272890  66.7074140  43.1654640  27.3987750  61.7616450
  42.7611640  26.6865000  61.2662350  43.2517760  27.0540990  62.6504490
  43.6336340  31.0855310  63.9255660  43.3364630  30.4800780  63.2463440
  44.5836160  31.1232620  63.8145020  41.8783260  24.1730960  65.5415490
  42.4297850  24.2826300  64.7668740  42.3926770  24.5468560  66.2570720
  51.7221950  34.6587180  67.5878760  51.2452510  35.4659370  67.3951370
  51.0383740  34.0065510  67.7404970  49.7659990  27.6730120  56.4904720
  50.2053270  26.8352550  56.3442540  50.4788410  28.3059520  56.5768860
  47.8755370  32.6126190  60.4585960  48.3151280  33.3550520  60.0441350
  47.8142260  32.8552760  61.3824920  53.3477130  18.9272930  54.8045760
  53.0349790  19.0199760  55.7044830  54.1089600  19.5053960  54.7543190
  39.8659270  26.2932730  59.2623100  39.7456870  27.0194820  58.6504370
  39.5560160  25.5235640  58.7851010  37.5044640  29.4647870  65.0691740
  37.5825060  29.5996640  64.1247460  38.1186320  28.7563760  65.2619860
  38.7492270  31.1648060  61.4797920  38.3420350  31.3062650  60.6251520
  39.6405280  30.8808220  61.2769130  50.5425550  35.5995310  57.8148970
  50.3826690  35.3098250  58.7130800  50.3772260  34.8235440  57.2794200
  43.0213930  35.3793840  59.5920590  42.8456410  34.4629380  59.3788390
  42.1669670  35.7381130  59.8318390  50.2451680  33.1082870  56.3746970
  49.5516840  33.1060160  55.7149250  50.9874540  32.6842190  55.9441140
  49.8101610  34.7345580  60.4495460  50.2658560  33.9534960  60.7634080
  50.1494130  35.4452400  60.9936640  37.5604160  30.5062040  67.6086200
  37.7235200  30.0367400  66.7905570  38.0256610  29.9985600  68.2735040
  42.3322930  19.6367800  62.6446770  41.8891080  20.4177340  62.3131290
  42.8907920  19.9597690  63.3517710  46.6192740  22.5036320  68.2482090
  46.1572110  22.7119340  69.0602030  46.2170850  21.6895670  67.9452760
  45.4481750  19.2578500  57.5252600  44.8235930  19.2538370  58.2505910
  45.3611870  18.3909460  57.1288570  44.3698830  20.1815130  64.5036370
  44.6671160  21.0877960  64.4228390  44.9184390  19.6933910  63.8895940
  42.1237150  24.7601370  60.3728020  41.8978070  24.5438540  61.2774640
  41.3429680  25.1929830  60.0273990  49.3534910  24.7664740  58.9718670
  48.7543800  25.4900540  58.7882290  49.9014520  24.7041520  58.1895120
  47.9599780  23.4028280  61.0021950  48.3529350  23.7200480  60.1890640
  48.3216630  22.5240160  61.1166470  36.9963950  19.9929080  63.2252150
  36.7077000  20.5631940  63.9377130  37.7409710  19.5133530  63.5883380
  37.1834180  23.9349200  54.4354870  37.1008850  24.8779960  54.5769860
  36.8317240  23.7924110  53.5567220  48.5454920  25.9934030  65.0972730
  47.8136040  26.5020840  65.4462830  48.1479260  25.1764010  64.7961510
  44.9832310  22.6688230  63.5025220  44.9868370  22.2278180  62.6529760
  45.8783430  22.9905560  63.6097040  40.8334690  22.5514720  62.4619430
  40.4934740  23.0289950  63.2186480  40.0712010  22.0979840  62.1020530
  45.0452460  23.6700310  56.4931980  45.1665280  23.6286790  57.4417800
  44.6600970  24.5324460  56.3378710  49.0080830  21.4467710  64.5095670
  49.0253570  21.8976360  65.3537520  48.7596410  20.5473350  64.7229110
  44.0573960  25.9801450  55.8915280  43.4890860  25.5319700  55.2651190
  44.7662960  26.3394230  55.3580430  45.2840280  26.7290010  65.2490630
  45.6510410  26.2548580  65.9951970  45.0945340  27.6031580  65.5898970
  38.1480770  21.4733700  61.3784100  37.8627690  21.1089370  62.2162720
  38.0859630  20.7414160  60.7647240  43.0739650  25.7698650  67.5674840
  42.7696720  26.6490630  67.7925200  44.0286110  25.8298440  67.6032280
  41.6021440  29.9759640  58.1641690  40.8283700  29.4357260  58.0040410
  42.3316070  29.4566250  57.8259450  52.3609420  28.9725000  63.9568080
  53.0808540  29.4680290  63.5664190  52.1591240  28.2942890  63.3121950
  47.8219360  20.3662960  58.0997470  47.0083970  19.8676130  58.0242780
  47.6281310  21.2061210  57.6833820  50.5367750  24.7382610  56.3959630
  51.4247370  25.0499840  56.2210970  50.5072840  23.8654860  56.0040210
  41.6458840  29.6440020  61.8020500  42.1637510  28.8408280  61.7477390
  41.1942860  29.5819160  62.6437330  46.5328340  30.9106300  57.0747800
  46.8744040  31.6548530  56.5791120  45.7041050  31.2237420  57.4372630
  52.8082020  26.0494450  55.8639490  52.7245740  26.4808670  55.0135930
  53.5276210  26.5092800  56.2966310  53.8856160  28.5061970  68.9409460
  53.1604350  29.0990750  68.7438850  54.4131620  28.4985510  68.1422830
  53.8369270  32.9036710  58.5921620  53.1945430  32.2492330  58.8665340
  53.4499930  33.3091800  57.8162290  49.4155750  30.2322140  62.4393310
  49.7679570  29.6350270  61.7794680  48.5318080  29.9066370  62.6101560
  45.5019030  30.9919830  59.8463720  46.1890160  31.5389040  60.2271310
  44.7151450  31.5360560  59.8813330  37.6411430  26.6092650  55.3380800
  38.5106280  26.8917450  55.6216720  37.1501750  27.4228520  55.2229610
  44.8046240  27.9965860  59.4589080  45.2609020  28.8071110  59.6849270
  44.4534450  27.6789000  60.2907570  47.1078850  33.5072200  66.6881380
  47.7521070  33.7131580  67.3654800  47.4708290  32.7460600  66.2352230
  40.7058020  18.3403510  59.9311600  40.5772650  18.3321410  60.8796520
  39.8820040  18.6786600  59.5802610  48.3810930  31.5104550  65.4058830
  49.0233160  30.8097710  65.5191000  48.9060280  32.2902990  65.2255720
  52.2266650  31.7953170  55.1297970  52.0004230  31.0783610  55.7222610
  51.8362850  31.5465610  54.2919720  38.0082680  35.8220030  55.9042430
  38.3680320  36.4209370  55.2499700  37.8675020  36.3679920  56.6777460
  51.8082900  29.7125110  56.7912130  51.5204600  30.1737800  57.5790010
  52.6035070  29.2522880  57.0596350  44.0251300  33.2051230  56.7216100
  44.0161400  33.9380920  56.1060610  43.1049660  32.9582810  56.8143060
  39.6257940  28.4266120  57.4662860  39.0185890  29.1665020  57.4758160
  40.1007290  28.5165480  56.6401060  49.1990730  22.5916940  67.1419750
  49.5671550  21.7712150  67.4699320  48.3388930  22.6518830  67.5575400
  52.5652760  21.5473880  57.9507310  51.9365920  21.6519550  57.2365540
  52.0704680  21.7670660  58.7401190  47.0110900  33.2679470  55.3841290
  47.1122880  33.0643460  54.4543270  46.1112640  33.0137750  55.5889070
  44.5336790  23.8259830  59.3665190  43.8252940  24.2946170  59.8078800
  44.8181270  23.1681840  60.0010380  46.1592720  25.2456530  67.3657720
  46.6577970  25.7202350  68.0309570  46.3015670  24.3220050  67.5727750
  48.5652220  20.5510490  60.8060980  48.4420000  20.5696620  59.8570490
  49.5136780  20.5989430  60.9259380  45.6529010  35.7865790  60.0788960
  45.9070510  35.7487180  59.1568330  44.7041490  35.6599120  60.0717210
  42.7371810  22.1344910  56.7415900  43.5862340  22.5715060  56.6756090
  42.3703080  22.4465170  57.5687960  53.3659580  21.4624490  68.2086110
  52.8633180  22.2029890  68.5479920  54.1816240  21.8508490  67.8922900
  51.6581590  26.7057670  61.6547470  50.7171730  26.7207900  61.8295160
  51.9725660  25.9193630  62.1007770  41.6363230  28.3877270  55.2151430
  42.4026500  28.2758630  55.7776860  41.7137920  27.6915240  54.5628200
  40.3309990  25.8202340  55.8984320  40.4113580  24.8729850  56.0101720
  41.2229740  26.1509220  56.0044980  53.6607170  33.8766520  63.3301730
  53.7854590  34.6997690  63.8025540  54.5272730  33.6657250  62.9825880
  41.1324700  35.9697730  63.0018860  41.8687180  35.4213190  63.2727430
  41.5165620  36.8353740  62.8624850  38.0170180  32.0371300  58.8760370
  37.0909960  32.2792440  58.8665780  38.4826610  32.8645560  58.7545120
  44.2427010  35.1428040  54.8244430  45.0355620  35.4316870  54.3726220
  43.7231360  34.7120210  54.1456910  53.2957180  34.3698170  56.2481170
  53.0098690  33.9563310  55.4335350  53.0976730  35.2985880  56.1281690
  44.7604410  30.3631450  54.6886780  44.6555050  29.7483800  55.4148160
  44.5928630  29.8397340  53.9049790  48.0007140  29.4251480  55.2928770
  47.4517240  29.8720780  55.9371510  48.6226400  28.9200730  55.8166440
  43.6682260  28.3842400  57.1894070  44.0898680  28.2182270  58.0325460
  43.7933100  27.5742630  56.6949210  46.1809900  27.4080010  54.4371170
  46.7015560  26.6929030  54.0712320  46.8278300  28.0465880  54.7371680
  45.0843420  19.8874560  67.1089730  44.6360720  19.9098820  66.2635280
  44.4508620  19.4893580  67.7060030  45.4902970  28.7828890  67.7302170
  45.9091080  29.6261620  67.5578410  44.5711600  28.9200930  67.5008950
  50.1654770  27.0682260  67.6902520  49.6389990  27.5924880  67.0867660
  50.5086110  27.7009650  68.3212250  42.5641160  24.4575630  54.1352230
  42.3630220  23.5942990  54.4965570  42.3933210  24.3708990  53.1973830
  43.3410390  35.0881900  68.8459900  42.8031480  35.8127960  68.5268600
  43.5944350  34.6112240  68.0557240  50.0429470  19.2683860  56.6639110
  50.3231760  18.4251760  57.0198530  49.2695200  19.5006970  57.1777860
  41.3623960  21.5576250  54.1230110  41.6649860  21.5643680  53.2149260
  42.1018550  21.2074110  54.6197770  44.5808890  20.5010870  55.1086310
  44.2330890  19.8234860  54.5288760  44.7821660  20.0400380  55.9229700
  46.7457930  35.4891620  56.7272910  47.6408720  35.8276590  56.7491670
  46.7775560  34.7671030  56.0997190  40.3854090  30.8618670  54.9559910
  40.8228960  31.4048340  55.6117490  40.8701820  30.0365620  54.9656250
  37.5999890  33.6507700  62.4080170  37.9302900  32.7828760  62.1758810
  38.0290890  33.8566220  63.2385130  42.1961810  31.9816710  60.0682140
  41.8957350  31.8581680  60.9686050  42.0899300  31.1225300  59.6597870
  38.0890100  34.5178290  65.1461800  37.6521090  34.6979090  65.9785950
  38.6567780  35.2752910  65.0043520  54.9653730  31.7613110  54.7708820
  54.1346690  31.8289760  55.2416050  55.1425560  32.6517230  54.4675680
  54.4210190  28.5060590  57.2743020  55.1829100  29.0757240  57.3802710
  54.4364560  27.9387790  58.0451330  37.9214530  27.0298520  61.5050680
  37.2663370  26.7610160  60.8610380  38.7592480  26.9203000  61.0552660
  55.4270160  29.3610690  62.1184950  55.7978990  28.5778010  61.7120920
  56.0672090  30.0499790  61.9402250  52.4103920  30.7447270  67.5315270
  51.5963760  31.1744430  67.7941060  52.8178120  31.3565680  66.9184320
  54.4729360  28.7994960  54.4315540  54.7478200  29.7073840  54.3034760
  54.2840100  28.7357490  55.3677530  50.8704970  21.8239810  55.7269170
  51.2889850  21.6370790  54.8865830  50.5641030  20.9718860  56.0372100
  54.3694700  26.7363950  59.4244970  53.9938300  25.9691880  58.9926260
  53.6397820  27.1186650  59.9119900  38.9590460  27.4151090  66.0454020
  39.3263500  27.3278490  66.9250040  38.3901280  26.6517640  65.9460880
  53.7594320  25.8835470  69.0584490  53.5280410  25.6548220  68.1582440
  54.0198870  26.8035020  69.0129380  37.1352610  24.2397450  57.4476010
  36.2316690  24.5027650  57.2727670  37.6193230  24.5108620  56.6675970
  53.6445660  24.9621440  62.7252210  54.1683140  24.4684090  62.0942380
  54.2305080  25.0971800  63.4699780  53.8235380  25.0461310  66.2471760
  52.8738090  25.0124850  66.3616750  54.0048390  25.9561420  66.0121530
  39.6779820  23.2962990  55.3570390  40.3871520  22.8746210  54.8717670
  38.9619760  23.3638220  54.7253740  39.3253980  19.3502320  54.3973040
  40.0482110  19.8911260  54.7154260  39.5978500  19.0765740  53.5214580
  53.1345630  24.2194790  58.6644620  53.6304750  23.9865660  59.4493500
  52.9361700  23.3806630  58.2482260  39.0146170  18.6008510  64.2995660
  39.6622360  18.0505890  63.8590820  39.4348010  18.8551660  65.1211470
  54.5632790  22.8555740  61.1982300  54.4532070  22.7011780  62.1364570
  55.3240380  22.3276680  60.9557710  52.9098510  18.7949870  67.6565300
  53.5470730  19.4084010  68.0224490  53.0573400  18.8310530  66.7114530
  55.4523060  20.6863660  54.4388440  56.3772370  20.5544840  54.2306730
  55.4298850  20.7656480  55.3924890  55.5261550  21.4574320  57.0645150
  54.7313050  21.3919440  57.5938060  55.7304830  22.3924960  57.0530500
  52.4679970  35.4965870  61.0583540  53.0639040  35.1750440  60.3817960
  52.7258120  35.0237690  61.8496810  38.7678170  18.7564180  67.0420980
  38.4192990  19.2128000  67.8079160  38.4365870  17.8621310  67.1243410
  44.0748570  33.4843370  66.8083890  43.8339930  33.7517930  65.9214410
  45.0151210  33.6549100  66.8634750  55.3352730  35.5037750  67.6094530
  54.8411010  35.9006620  66.8921660  54.7266020  34.8786960  68.0031810
  40.2130570  34.8746030  68.3271950  39.6190890  34.7430730  69.0661990
  40.2054410  34.0384170  67.8614050  49.6585590  18.1678260  66.5301980
  48.7845430  18.5013370  66.3274910  49.5496340  17.6951440  67.3553850
  50.5657570  20.3749130  67.9143700  50.2370930  19.5600890  67.5345430
  51.5139870  20.3318940  67.7909390  53.0192180  36.1461170  64.8881270
  52.5595150  36.8976980  64.5139290  52.3904640  35.4267640  64.8296070
  39.8442800  32.2404410  67.2779990  39.1176860  31.6209700  67.2105940
  39.9051950  32.6345020  66.4078070  43.4487900  34.4549410  64.0629400
  43.9652920  33.8436770  63.5377660  44.0985280  34.9578190  64.5540410
  46.1883400  35.3457900  64.8898380  46.4761210  35.0912200  64.0131390
  46.7006620  34.7935260  65.4803950  47.4060410  19.0848100  65.4694890
  46.6232200  19.5593600  65.7491650  47.1123340  18.1802930  65.3608070
  51.9581480  19.7871200  63.5143980  52.3989570  19.7316300  62.6665580
  51.6889070  20.7029210  63.5854160  53.8220050  19.4186440  61.5252800
  53.7608450  18.4747660  61.3783820  54.6012080  19.5266530  62.0706260
  38.1272800  35.5578800  60.4876750  37.9594840  34.9249480  61.1858640
  37.2607310  35.7638200  60.1370940  38.7500820  19.3895580  57.9908610
  39.5080180  19.5024460  57.4172640  38.2877990  20.2264780  57.9452040
  45.2914630  21.5034850  60.9810920  44.4789140  21.1291740  60.6406800
  45.7956270  20.7479930  61.2832110  49.7939610  18.1677300  62.2193990
  50.3968980  18.7397510  62.6942510  49.0532600  18.7316740  61.9967890
  52.9374210  18.5698860  57.4934270  53.1324840  19.4682310  57.7601700
  52.1504080  18.3385940  57.9867220  39.7335500  34.2512030  57.9326890
  39.2083120  34.6320060  57.2288850  39.6580080  34.8762800  58.6536600
  41.1225970  19.9159630  56.5310580  41.6518730  19.1289430  56.4018530
  41.7554290  20.5950820  56.7646110  43.3163810  19.6534770  59.5855970
  42.6866550  18.9522080  59.7526100  42.7768950  20.4138900  59.3689130
  54.4900820  35.8099570  59.2540830  54.6653010  35.1237310  58.6101750
  53.7922390  36.3346620  58.8617500  42.3328470  36.1994410  56.8076140
  43.0647290  35.9153690  56.2600030  42.5922140  35.9607690  57.6975520
  41.4943260  32.3159140  56.8122470  40.8652140  32.7844240  57.3608300
  41.6091090  31.4708360  57.2468660  48.9492980  26.3664800  42.9623670
  48.8687030  25.4519410  42.6915380  48.5357400  26.8631870  42.2563380
  47.0811020  28.1443820  44.8432940  46.3053120  27.6644260  45.1331510
  47.7323950  27.4649470  44.6689100  41.0976850  28.4563630  45.7208700
  40.2661730  28.2012340  46.1205210  41.7057830  28.5274400  46.4566620
  51.1018450  32.5504010  43.6232070  50.6399980  31.7791250  43.9519240
  51.9144000  32.5770080  44.1284520  41.0778110  32.4903720  45.9166720
  41.3806150  31.6001460  45.7376940  41.8221700  33.0473940  45.6888970
  39.5068800  23.4165520  39.5051090  38.6185500  23.7581490  39.4030970
  39.7909990  23.2165840  38.6131920  37.4701810  26.0171170  45.3890790
  38.0417920  25.2493370  45.3894430  37.4703350  26.3159930  44.4797400
  47.3281760  34.8362020  43.2436060  46.7093200  35.2919520  42.6730500
  48.1833540  34.9913480  42.8425760  46.5220010  30.8201010  44.8503100
  46.4528290  29.8790950  44.6892230  47.2839870  30.9102420  45.4225670
  38.7126680  21.4255530  47.1759720  38.5329520  20.5281280  47.4562480
  38.3106760  21.9727400  47.8506670  47.5525180  23.6271390  45.0772030
  47.9290000  22.7543270  44.9645700  47.4544690  23.9630090  44.1862470
  41.6830190  21.9997020  40.5389470  41.7896940  22.9000750  40.8458230
  40.7722550  21.9514990  40.2484120  51.3349300  21.1221830  42.0100370
  52.1558920  20.6318400  42.0525850  51.3683380  21.7119490  42.7632210
  39.3313350  23.9216030  45.7842060  40.0123460  24.1854400  46.4029460
  39.0161400  23.0816900  46.1180070  43.5237920  24.9683390  44.8714650
  44.0316140  25.4664360  45.5119670  44.0551160  24.1918590  44.6954010
  55.6248850  23.1388580  48.5744000  54.9201020  23.5270290  48.0559110
  55.8906770  23.8338870  49.1764930  41.8074020  19.6081950  49.1378070
  41.8092460  20.1254340  48.3323970  40.9778330  19.1312130  49.1148000
  48.1945110  29.7201260  40.6367970  47.5762380  30.1850710  40.0730690
  48.7068360  30.4128740  41.0537480  43.0576870  29.2477130  47.3151570
  42.7246250  29.8746050  47.9572640  43.2343550  29.7739010  46.5353240
  51.5710780  23.0622210  44.7827910  50.8666350  23.3507100  45.3631020
  51.9322940  23.8722320  44.4227470  41.4889350  21.3191910  47.1448520
  41.8306160  22.1633960  46.8502390  40.5505160  21.4675650  47.2613860
  42.2695970  31.2157930  49.1300750  42.8869970  31.8909010  48.8485200
  41.4089090  31.6245910  49.0388250  37.5628310  30.4057790  38.0107600
  37.1856290  30.8944890  37.2792500  37.8201380  31.0783070  38.6414130
  53.1873560  32.6797340  47.0455390  52.5037080  33.3496450  47.0372060
  53.7267850  32.8777990  46.2800250  54.6397700  22.5077000  45.1737120
  53.6922610  22.5415980  45.3052550  54.9647690  23.3215950  45.5586480
  45.1717240  18.8074180  43.4693110  45.4792220  18.2521070  42.7528610
  44.2417940  18.9418640  43.2866100  50.7232300  34.5241470  45.7600570
  50.7359460  34.1203760  44.8922830  50.1707520  35.2988760  45.6562000
  52.0177720  31.2457690  40.8490740  51.9074050  30.3032020  40.9740160
  52.0145970  31.6073330  41.7353500  50.1217740  29.4271310  47.0883180
  50.5386530  29.2131420  46.2536640  50.8457560  29.6844100  47.6591800
  47.5598000  26.8723010  40.2053230  46.6327280  26.8060390  40.4341700
  47.7122820  27.8103140  40.0908470  47.5467080  23.1440010  37.2020390
  46.6070750  23.3053970  37.2872850  47.8650340  23.8625690  36.6556380
  54.0679840  27.8258530  47.1799420  53.2398470  27.8951620  46.7049550
  54.6630320  28.4112840  46.7115250  51.5895290  28.4343310  40.7088480
  50.9707710  28.0962860  40.0614780  51.5719740  27.7903070  41.4167670
  51.0321850  24.6127850  48.1254290  50.6193030  25.4381560  48.3794280
  50.2997800  24.0272890  47.9330650  43.1654640  27.3987750  42.9872960
  42.7611640  26.6865000  42.4918860  43.2517760  27.0540990  43.8761000
  43.6336340  31.0855310  45.1512170  43.3364630  30.4800780  44.4719950
  44.5836160  31.1232620  45.0401530  41.8783260  24.1730960  46.7672000
  42.4297850  24.2826300  45.9925250  42.3926770  24.5468560  47.4827230
  51.7221950  34.6587180  48.8135270  51.2452510  35.4659370  48.6207880
  51.0383740  34.0065510  48.9661480  42.7254770  30.8237000  51.8019970
  41.8283300  31.0476970  52.0493370  42.7507640  30.9471940  50.8531370
  49.7659990  27.6730120  37.7161230  50.2053270  26.8352550  37.5699050
  50.4788410  28.3059520  37.8025370  41.5525990  27.6950320  50.3777340
  41.4133760  28.5673120  50.7464740  40.6707350  27.3523130  50.2325280
  47.8755370  32.6126190  41.6842470  48.3151280  33.3550520  41.2697860
  47.8142260  32.8552760  42.6081430  43.3506340  33.6372020  52.5862490
  43.3221770  34.0414970  51.7190920  43.1871310  32.7082380  52.4234090
  53.3477130  18.9272930  36.0302270  53.0349790  19.0199760  36.9301340
  54.1089600  19.5053960  35.9799700  39.8659270  26.2932730  40.4879610
  39.7456870  27.0194820  39.8760880  39.5560160  25.5235640  40.0107520
  55.3021160  34.4199120  53.8826660  55.7780880  34.8982010  54.5615740
  55.9228320  34.3516610  53.1572160  37.5044640  29.4647870  46.2948250
  37.5825060  29.5996640  45.3503970  38.1186320  28.7563760  46.4876370
  38.7492270  31.1648060  42.7054430  38.3420350  31.3062650  41.8508030
  39.6405280  30.8808220  42.5025640  54.7054410  31.6111970  51.0426670
  54.8317470  31.3723850  50.1243850  54.7475790  30.7796510  51.5148750
  48.5671150  35.3139970  49.6121480  49.0815820  35.2247980  50.4143910
  47.7240230  35.6599670  49.9049390  50.5425550  35.5995310  39.0405480
  50.3826690  35.3098250  39.9387310  50.3772260  34.8235440  38.5050710
  43.0213930  35.3793840  40.8177100  42.8456410  34.4629380  40.6044900
  42.1669670  35.7381130  41.0574900  50.2451680  33.1082870  37.6003480
  49.5516840  33.1060160  36.9405760  50.9874540  32.6842190  37.1697650
  49.8101610  34.7345580  41.6751970  50.2658560  33.9534960  41.9890590
  50.1494130  35.4452400  42.2193150  54.5578420  23.6644430  52.0076410
  53.9422690  24.1724100  51.4791870  54.2374840  22.7642760  51.9502350
  37.5604160  30.5062040  48.8342710  37.7235200  30.0367400  48.0162080
  38.0256610  29.9985600  49.4991550  42.3322930  19.6367800  43.8703280
  41.8891080  20.4177340  43.5387800  42.8907920  19.9597690  44.5774220
  46.6192740  22.5036320  49.4738600  46.1572110  22.7119340  50.2858540
  46.2170850  21.6895670  49.1709270  51.6197250  23.7245270  50.6035260
  50.7690840  23.4251020  50.9244330  51.4599040  23.9687280  49.6919080
  48.7146960  25.2247020  52.7034050  49.0400370  24.3910770  52.3636280
  49.5027290  25.7475540  52.8512380  45.4481750  19.2578500  38.7509110
  44.8235930  19.2538370  39.4762420  45.3611870  18.3909460  38.3545080
  44.3698830  20.1815130  45.7292880  44.6671160  21.0877960  45.6484900
  44.9184390  19.6933910  45.1152450  42.1237150  24.7601370  41.5984530
  41.8978070  24.5438540  42.5031150  41.3429680  25.1929830  41.2530500
  49.3534910  24.7664740  40.1975180  48.7543800  25.4900540  40.0138800
  49.9014520  24.7041520  39.4151630  44.5636360  25.6586950  52.2644800
  44.4679960  24.7181680  52.1145200  45.4068340  25.8802020  51.8692870
  47.9599780  23.4028280  42.2278460  48.3529350  23.7200480  41.4147150
  48.3216630  22.5240160  42.3422980  39.6946900  22.0700620  50.4178580
  39.3010290  22.9175830  50.6251360  39.0065300  21.4326990  50.6087220
  46.2691950  22.1535590  53.4875320  45.5790270  21.9607790  54.1221410
  47.0124250  22.4370230  54.0199620  36.9963950  19.9929080  44.4508660
  36.7077000  20.5631940  45.1633640  37.7409710  19.5133530  44.8139890
  37.1834180  23.9349200  35.6611380  37.1008850  24.8779960  35.8026370
  36.8317240  23.7924110  34.7823730  48.5454920  25.9934030  46.3229240
  47.8136040  26.5020840  46.6719340  48.1479260  25.1764010  46.0218020
  44.9832310  22.6688230  44.7281730  44.9868370  22.2278180  43.8786270
  45.8783430  22.9905560  44.8353550  40.8334690  22.5514720  43.6875940
  40.4934740  23.0289950  44.4442990  40.0712010  22.0979840  43.3277040
  45.0452460  23.6700310  37.7188490  45.1665280  23.6286790  38.6674310
  44.6600970  24.5324460  37.5635220  49.0080830  21.4467710  45.7352180
  49.0253570  21.8976360  46.5794030  48.7596410  20.5473350  45.9485620
  44.0573960  25.9801450  37.1171790  43.4890860  25.5319700  36.4907700
  44.7662960  26.3394230  36.5836940  52.4351580  18.8599890  51.5738560
  52.7597350  18.1289550  52.0996540  52.4708090  18.5413530  50.6719550
  39.1343140  29.8813470  50.9938520  38.7497930  29.2407140  51.5921480
  39.4455330  30.5849590  51.5633250  45.2840280  26.7290010  46.4747140
  45.6510410  26.2548580  47.2208480  45.0945340  27.6031580  46.8155480
  38.1480770  21.4733700  42.6040610  37.8627690  21.1089370  43.4419230
  38.0859630  20.7414160  41.9903750  43.0739650  25.7698650  48.7931350
  42.7696720  26.6490630  49.0181710  44.0286110  25.8298440  48.8288790
  41.6021440  29.9759640  39.3898200  40.8283700  29.4357260  39.2296920
  42.3316070  29.4566250  39.0515960  52.3609420  28.9725000  45.1824590
  53.0808540  29.4680290  44.7920700  52.1591240  28.2942890  44.5378460
  47.8219360  20.3662960  39.3253980  47.0083970  19.8676130  39.2499290
  47.6281310  21.2061210  38.9090330  47.7428220  29.0434060  51.0693590
  47.6765530  28.1229730  50.8151180  47.1133360  29.1409500  51.7838230
  50.5367750  24.7382610  37.6216140  51.4247370  25.0499840  37.4467480
  50.5072840  23.8654860  37.2296720  41.6458840  29.6440020  43.0277010
  42.1637510  28.8408280  42.9733900  41.1942860  29.5819160  43.8693840
  46.5328340  30.9106300  38.3004310  46.8744040  31.6548530  37.8047630
  45.7041050  31.2237420  38.6629140  39.1303380  26.6101390  49.9402710
  38.7718320  27.2755240  50.5276050  38.8357940  25.7784940  50.3115330
  42.3316500  27.0685630  52.8242260  42.0316640  27.2142810  51.9270080
  43.1027740  26.5090920  52.7315650  47.6744950  31.8654630  50.8197390
  47.6889490  30.9335590  50.6016300  46.9670050  31.9514390  51.4587160
  52.8082020  26.0494450  37.0896000  52.7245740  26.4808670  36.2392440
  53.5276210  26.5092800  37.5222820  53.8856160  28.5061970  50.1665970
  53.1604350  29.0990750  49.9695360  54.4131620  28.4985510  49.3679340
  53.8369270  32.9036710  39.8178130  53.1945430  32.2492330  40.0921850
  53.4499930  33.3091800  39.0418800  49.4155750  30.2322140  43.6649820
  49.7679570  29.6350270  43.0051190  48.5318080  29.9066370  43.8358070
  45.5019030  30.9919830  41.0720230  46.1890160  31.5389040  41.4527820
  44.7151450  31.5360560  41.1069840  37.6411430  26.6092650  36.5637310
  38.5106280  26.8917450  36.8473230  37.1501750  27.4228520  36.4486120
  44.8046240  27.9965860  40.6845590  45.2609020  28.8071110  40.9105780
  44.4534450  27.6789000  41.5164080  47.1078850  33.5072200  47.9137890
  47.7521070  33.7131580  48.5911310  47.4708290  32.7460600  47.4608740
  40.7058020  18.3403510  41.1568110  40.5772650  18.3321410  42.1053030
  39.8820040  18.6786600  40.8059120  48.3810930  31.5104550  46.6315340
  49.0233160  30.8097710  46.7447510  48.9060280  32.2902990  46.4512230
  52.2266650  31.7953170  36.3554480  52.0004230  31.0783610  36.9479120
  51.8362850  31.5465610  35.5176230  50.1548550  32.3099450  49.8351400
  50.4904790  32.8966140  50.5129320  49.2348890  32.1792160  50.0649190
  37.7051950  20.0994630  50.6174810  36.9910470  20.2991550  51.2227420
  38.1246990  19.3234200  50.9889610  51.8082900  29.7125110  38.0168640
  51.5204600  30.1737800  38.8046520  52.6035070  29.2522880  38.2852860
  37.9924540  34.0874890  51.6041340  38.1015660  33.1469630  51.4636730
  37.3405100  34.3529640  50.9555070  45.9837130  32.3590780  53.0039460
  45.6634000  31.6400020  53.5485150  45.3095490  33.0345850  53.0775520
  44.0251300  33.2051230  37.9472610  44.0161400  33.9380920  37.3317120
  43.1049660  32.9582810  38.0399570  39.6257940  28.4266120  38.6919370
  39.0185890  29.1665020  38.7014670  40.1007290  28.5165480  37.8657570
  49.1990730  22.5916940  48.3676260  49.5671550  21.7712150  48.6955830
  48.3388930  22.6518830  48.7831910  52.5652760  21.5473880  39.1763820
  51.9365920  21.6519550  38.4622050  52.0704680  21.7670660  39.9657700
  47.0110900  33.2679470  36.6097800  47.1122880  33.0643460  35.6799780
  46.1112640  33.0137750  36.8145580  44.5336790  23.8259830  40.5921700
  43.8252940  24.2946170  41.0335310  44.8181270  23.1681840  41.2266890
  46.1592720  25.2456530  48.5914230  46.6577970  25.7202350  49.2566080
  46.3015670  24.3220050  48.7984260  48.5652220  20.5510490  42.0317490
  48.4420000  20.5696620  41.0827000  49.5136780  20.5989430  42.1515890
  45.6529010  35.7865790  41.3045470  45.9070510  35.7487180  40.3824840
  44.7041490  35.6599120  41.2973720  42.7371810  22.1344910  37.9672410
  43.5862340  22.5715060  37.9012600  42.3703080  22.4465170  38.7944470
  53.3659580  21.4624490  49.4342620  52.8633180  22.2029890  49.7736430
  54.1816240  21.8508490  49.1179410  51.6581590  26.7057670  42.8803980
  50.7171730  26.7207900  43.0551670  51.9725660  25.9193630  43.3264280
  41.6363230  28.3877270  36.4407940  42.4026500  28.2758630  37.0033370
  41.7137920  27.6915240  35.7884710  40.3309990  25.8202340  37.1240830
  40.4113580  24.8729850  37.2358230  41.2229740  26.1509220  37.2301490
  53.6607170  33.8766520  44.5558240  53.7854590  34.6997690  45.0282050
  54.5272730  33.6657250  44.2082390  41.1324700  35.9697730  44.2275370
  41.8687180  35.4213190  44.4983940  41.5165620  36.8353740  44.0881360
  38.0170180  32.0371300  40.1016880  37.0909960  32.2792440  40.0922290
  38.4826610  32.8645560  39.9801630  40.1382980  35.1543800  53.4160950
  40.9395710  35.4755850  53.8296350  39.6234800  34.7939380  54.1380860
  44.2427010  35.1428040  36.0500940  45.0355620  35.4316870  35.5982730
  43.7231360  34.7120210  35.3713420  48.9747610  31.2623670  53.3636360
  48.3685770  31.2855270  52.6232110  48.6701720  30.5306710  53.9003610
  50.4047980  34.9903960  51.9745770  51.3569730  34.9061980  51.9246010
  50.2576200  35.6545670  52.6479560  53.2957180  34.3698170  37.4737680
  53.0098690  33.9563310  36.6591860  53.0976730  35.2985880  37.3538200
  37.8580790  27.6417260  52.3597000  38.3619810  27.0624540  52.9313230
  37.1188210  27.9257490  52.8973370  44.7604410  30.3631450  35.9143290
  44.6555050  29.7483800  36.6404670  44.5928630  29.8397340  35.1306300
  44.9118730  29.0488250  51.8932520  44.1464400  29.6173250  51.8087190
  45.0934690  28.7564460  51.0000750  48.0007140  29.4251480  36.5185280
  47.4517240  29.8720780  37.1628020  48.6226400  28.9200730  37.0422950
  52.0542080  30.7793580  52.4507540  52.7951550  31.1169340  51.9475000
  51.2914760  30.9485640  51.8977310  39.8903870  25.7846850  53.2547070
  39.9309210  25.4860720  54.1632300  40.7449370  26.1854460  53.0954590
  43.6682260  28.3842400  38.4150580  44.0898680  28.2182270  39.2581970
  43.7933100  27.5742630  37.9205720  41.8309680  24.3638950  51.2221560
  41.3006140  23.8729900  50.5944900  42.4997750  24.7923150  50.6879490
  46.1809900  27.4080010  35.6627680  46.7015560  26.6929030  35.2968830
  46.8278300  28.0465880  35.9628190  50.7287740  28.8308410  50.9862750
  51.1428760  28.9853490  51.8353170  49.7938740  28.9563630  51.1488530
  51.2009910  26.1704570  52.9901900  51.7830680  25.4156890  52.9022380
  51.3771680  26.7012010  52.2133380  42.3181980  21.3301320  51.3018850
  42.2238850  20.7122070  50.5769720  41.7379370  22.0567610  51.0748760
  45.0843420  19.8874560  48.3346240  44.6360720  19.9098820  47.4891790
  44.4508620  19.4893580  48.9316540  45.4902970  28.7828890  48.9558680
  45.9091080  29.6261620  48.7834920  44.5711600  28.9200930  48.7265460
  47.8266870  26.5145070  50.3396520  47.9463080  25.9186210  51.0791360
  48.6860870  26.5514760  49.9197820  50.1654770  27.0682260  48.9159030
  49.6389990  27.5924880  48.3124170  50.5086110  27.7009650  49.5468760
  42.5641160  24.4575630  35.3608740  42.3630220  23.5942990  35.7222080
  42.3933210  24.3708990  34.4230340  43.3410390  35.0881900  50.0716410
  42.8031480  35.8127960  49.7525110  43.5944350  34.6112240  49.2813750
  44.5935640  23.0566420  51.5972340  45.1835330  22.7482270  52.2850160
  43.7755880  22.5846170  51.7532240  49.4129070  22.6732230  51.8305360
  48.7244590  22.0113770  51.7655350  50.1335090  22.2270500  52.2753820
  50.0429470  19.2683860  37.8895620  50.3231760  18.4251760  38.2455040
  49.2695200  19.5006970  38.4034370  41.3623960  21.5576250  35.3486620
  41.6649860  21.5643680  34.4405770  42.1018550  21.2074110  35.8454280
  46.1972600  36.3233110  50.3303060  46.1231300  37.2268250  50.6375430
  45.2951440  36.0045010  50.3025130  44.5808890  20.5010870  36.3342820
  44.2330890  19.8234860  35.7545270  44.7821660  20.0400380  37.1486210
  46.7457930  35.4891620  37.9529420  47.6408720  35.8276590  37.9748180
  46.7775560  34.7671030  37.3253700  40.3854090  30.8618670  36.1816420
  40.8228960  31.4048340  36.8374000  40.8701820  30.0365620  36.1912760
  37.5999890  33.6507700  43.6336680  37.9302900  32.7828760  43.4015320
  38.0290890  33.8566220  44.4641640  42.1961810  31.9816710  41.2938650
  41.8957350  31.8581680  42.1942560  42.0899300  31.1225300  40.8854380
  38.0890100  34.5178290  46.3718310  37.6521090  34.6979090  47.2042460
  38.6567780  35.2752910  46.2300030  53.7252280  34.0195290  50.6595620
  53.1254270  34.0787850  49.9159540  53.8546180  33.0800270  50.7892470
  54.9653730  31.7613110  35.9965330  54.1346690  31.8289760  36.4672560
  55.1425560  32.6517230  35.6932190  54.4210190  28.5060590  38.4999530
  55.1829100  29.0757240  38.6059220  54.4364560  27.9387790  39.2707840
  37.9214530  27.0298520  42.7307190  37.2663370  26.7610160  42.0866890
  38.7592480  26.9203000  42.2809170  55.4270160  29.3610690  43.3441460
  55.7978990  28.5778010  42.9377430  56.0672090  30.0499790  43.1658760
  52.4103920  30.7447270  48.7571780  51.5963760  31.1744430  49.0197570
  52.8178120  31.3565680  48.1440830  54.4729360  28.7994960  35.6572050
  54.7478200  29.7073840  35.5291270  54.2840100  28.7357490  36.5934040
  50.8704970  21.8239810  36.9525680  51.2889850  21.6370790  36.1122340
  50.5641030  20.9718860  37.2628610  54.3694700  26.7363950  40.6501480
  53.9938300  25.9691880  40.2182770  53.6397820  27.1186650  41.1376410
  38.9590460  27.4151090  47.2710530  39.3263500  27.3278490  48.1506550
  38.3901280  26.6517640  47.1717390  53.7594320  25.8835470  50.2841000
  53.5280410  25.6548220  49.3838950  54.0198870  26.8035020  50.2385890
  38.5106460  24.3260180  51.1768950  37.6162510  24.2926940  51.5162660
  39.0504010  24.5246970  51.9420200  52.1982390  21.1091900  53.0620700
  53.0752570  21.1175300  53.4454700  52.2103230  20.3722740  52.4513050
  37.1352610  24.2397450  38.6732520  36.2316690  24.5027650  38.4984180
  37.6193230  24.5108620  37.8932480  53.6445660  24.9621440  43.9508720
  54.1683140  24.4684090  43.3198890  54.2305080  25.0971800  44.6956290
  53.8235380  25.0461310  47.4728270  52.8738090  25.0124850  47.5873260
  54.0048390  25.9561420  47.2378040  39.6779820  23.2962990  36.5826900
  40.3871520  22.8746210  36.0974180  38.9619760  23.3638220  35.9510250
  39.3253980  19.3502320  35.6229550  40.0482110  19.8911260  35.9410770
  39.5978500  19.0765740  34.7471090  53.1345630  24.2194790  39.8901130
  53.6304750  23.9865660  40.6750010  52.9361700  23.3806630  39.4738770
  39.0146170  18.6008510  45.5252170  39.6622360  18.0505890  45.0847330
  39.4348010  18.8551660  46.3467980  54.5632790  22.8555740  42.4238810
  54.4532070  22.7011780  43.3621080  55.3240380  22.3276680  42.1814220
  52.9098510  18.7949870  48.8821810  53.5470730  19.4084010  49.2481000
  53.0573400  18.8310530  47.9371040  55.4523060  20.6863660  35.6644950
  56.3772370  20.5544840  35.4563240  55.4298850  20.7656480  36.6181400
  55.5261550  21.4574320  38.2901660  54.7313050  21.3919440  38.8194570
  55.7304830  22.3924960  38.2787010  52.4679970  35.4965870  42.2840050
  53.0639040  35.1750440  41.6074470  52.7258120  35.0237690  43.0753320
  38.7678170  18.7564180  48.2677490  38.4192990  19.2128000  49.0335670
  38.4365870  17.8621310  48.3499920  40.3742540  31.9283780  52.4330680
  40.3312170  31.5576690  53.3145140  40.5053550  32.8661350  52.5732500
  44.0748570  33.4843370  48.0340400  43.8339930  33.7517930  47.1470920
  45.0151210  33.6549100  48.0891260  46.2802990  19.9476060  51.7896910
  46.2191880  20.5397890  52.5392320  47.2203370  19.8402020  51.6447170
  48.9177550  19.6046120  51.4289200  49.5317960  19.9225410  50.7670280
  49.4627110  19.1194710  52.0485060  55.3352730  35.5037750  48.8351040
  54.8411010  35.9006620  48.1178170  54.7266020  34.8786960  49.2288320
  39.4398810  18.2840380  51.5428260  39.9881800  18.1028430  50.7794370
  39.5054120  17.4934490  52.0784570  40.2130570  34.8746030  49.5528460
  39.6190890  34.7430730  50.2918500  40.2054410  34.0384170  49.0870560
  49.6585590  18.1678260  47.7558490  48.7845430  18.5013370  47.5531420
  49.5496340  17.6951440  48.5810360  50.5657570  20.3749130  49.1400210
  50.2370930  19.5600890  48.7601940  51.5139870  20.3318940  49.0165900
  53.0192180  36.1461170  46.1137780  52.5595150  36.8976980  45.7395800
  52.3904640  35.4267640  46.0552580  39.8442800  32.2404410  48.5036500
  39.1176860  31.6209700  48.4362450  39.9051950  32.6345020  47.6334580
  43.4487900  34.4549410  45.2885910  43.9652920  33.8436770  44.7634170
  44.0985280  34.9578190  45.7796920  46.1883400  35.3457900  46.1154890
  46.4761210  35.0912200  45.2387900  46.7006620  34.7935260  46.7060460
  47.4060410  19.0848100  46.6951400  46.6232200  19.5593600  46.9748160
  47.1123340  18.1802930  46.5864580  51.9581480  19.7871200  44.7400490
  52.3989570  19.7316300  43.8922090  51.6889070  20.7029210  44.8110670
  53.8220050  19.4186440  42.7509310  53.7608450  18.4747660  42.6040330
  54.6012080  19.5266530  43.2962770  38.1272800  35.5578800  41.7133260
  37.9594840  34.9249480  42.4115150  37.2607310  35.7638200  41.3627450
  38.7500820  19.3895580  39.2165120  39.5080180  19.5024460  38.6429150
  38.2877990  20.2264780  39.1708550  45.2914630  21.5034850  42.2067430
  44.4789140  21.1291740  41.8663310  45.7956270  20.7479930  42.5088620
  49.7939610  18.1677300  43.4450500  50.3968980  18.7397510  43.9199020
  49.0532600  18.7316740  43.2224400  52.9374210  18.5698860  38.7190780
  53.1324840  19.4682310  38.9858210  52.1504080  18.3385940  39.2123730
  41.1225970  19.9159630  37.7567090  41.6518730  19.1289430  37.6275040
  41.7554290  20.5950820  37.9902620  43.3163810  19.6534770  40.8112480
  42.6866550  18.9522080  40.9782610  42.7768950  20.4138900  40.5945640
  46.2555760  36.2674000  53.4823090  47.1823070  36.0318270  53.5259050
  46.2406190  37.0946000  53.0009120  54.4900820  35.8099570  40.4797340
  54.6653010  35.1237310  39.8358260  53.7922390  36.3346620  40.0874010
  43.4419370  18.9318750  53.2464970  43.1603640  19.4352350  52.4825790
  43.8239070  18.1340500  52.8807100  42.3328470  36.1994410  38.0332650
  43.0647290  35.9153690  37.4856540  42.5922140  35.9607690  38.9232030
  41.4943260  32.3159140  38.0378980  40.8652140  32.7844240  38.5864810
  41.6091090  31.4708360  38.4725170  50.0434830  18.3472330  53.8245440
  49.9300280  18.6666940  54.7196960  50.8604570  18.7484840  53.5282720
  52.8233320  35.4943860  53.3064130  53.6158640  34.9993090  53.0990090
  53.1166470  36.1734000  53.9139740  48.9492980  26.3664800  24.1880180
  48.8687030  25.4519410  23.9171890  48.5357400  26.8631870  23.4819890
  47.0811020  28.1443820  26.0689450  46.3053120  27.6644260  26.3588020
  47.7323950  27.4649470  25.8945610  41.0976850  28.4563630  26.9465210
  40.2661730  28.2012340  27.3461720  41.7057830  28.5274400  27.6823130
  51.1018450  32.5504010  24.8488580  50.6399980  31.7791250  25.1775750
  51.9144000  32.5770080  25.3541030  41.0778110  32.4903720  27.1423230
  41.3806150  31.6001460  26.9633450  41.8221700  33.0473940  26.9145480
  39.5068800  23.4165520  20.7307600  38.6185500  23.7581490  20.6287480
  39.7909990  23.2165840  19.8388430  37.4701810  26.0171170  26.6147300
  38.0417920  25.2493370  26.6150940  37.4703350  26.3159930  25.7053910
  47.3281760  34.8362020  24.4692570  46.7093200  35.2919520  23.8987010
  48.1833540  34.9913480  24.0682270  46.5220010  30.8201010  26.0759610
  46.4528290  29.8790950  25.9148740  47.2839870  30.9102420  26.6482180
  38.7126680  21.4255530  28.4016230  38.5329520  20.5281280  28.6818990
  38.3106760  21.9727400  29.0763180  47.5525180  23.6271390  26.3028540
  47.9290000  22.7543270  26.1902210  47.4544690  23.9630090  25.4118980
  41.6830190  21.9997020  21.7645980  41.7896940  22.9000750  22.0714740
  40.7722550  21.9514990  21.4740630  51.3349300  21.1221830  23.2356880
  52.1558920  20.6318400  23.2782360  51.3683380  21.7119490  23.9888720
  39.3313350  23.9216030  27.0098570  40.0123460  24.1854400  27.6285970
  39.0161400  23.0816900  27.3436580  43.5237920  24.9683390  26.0971160
  44.0316140  25.4664360  26.7376180  44.0551160  24.1918590  25.9210520
  55.6248850  23.1388580  29.8000510  54.9201020  23.5270290  29.2815620
  55.8906770  23.8338870  30.4021440  41.8074020  19.6081950  30.3634580
  41.8092460  20.1254340  29.5580480  40.9778330  19.1312130  30.3404510
  48.1945110  29.7201260  21.8624480  47.5762380  30.1850710  21.2987200
  48.7068360  30.4128740  22.2793990  43.0576870  29.2477130  28.5408080
  42.7246250  29.8746050  29.1829150  43.2343550  29.7739010  27.7609750
  51.5710780  23.0622210  26.0084420  50.8666350  23.3507100  26.5887530
  51.9322940  23.8722320  25.6483980  41.4889350  21.3191910  28.3705030
  41.8306160  22.1633960  28.0758900  40.5505160  21.4675650  28.4870370
  42.2695970  31.2157930  30.3557260  42.8869970  31.8909010  30.0741710
  41.4089090  31.6245910  30.2644760  37.5628310  30.4057790  19.2364110
  37.1856290  30.8944890  18.5049010  37.8201380  31.0783070  19.8670640
  53.1873560  32.6797340  28.2711900  52.5037080  33.3496450  28.2628570
  53.7267850  32.8777990  27.5056760  54.6397700  22.5077000  26.3993630
  53.6922610  22.5415980  26.5309060  54.9647690  23.3215950  26.7842990
  45.1717240  18.8074180  24.6949620  45.4792220  18.2521070  23.9785120
  44.2417940  18.9418640  24.5122610  50.7232300  34.5241470  26.9857080
  50.7359460  34.1203760  26.1179340  50.1707520  35.2988760  26.8818510
  52.0177720  31.2457690  22.0747250  51.9074050  30.3032020  22.1996670
  52.0145970  31.6073330  22.9610010  50.1217740  29.4271310  28.3139690
  50.5386530  29.2131420  27.4793150  50.8457560  29.6844100  28.8848310
  47.5598000  26.8723010  21.4309740  46.6327280  26.8060390  21.6598210
  47.7122820  27.8103140  21.3164980  47.5467080  23.1440010  18.4276900
  46.6070750  23.3053970  18.5129360  47.8650340  23.8625690  17.8812890
  54.0679840  27.8258530  28.4055930  53.2398470  27.8951620  27.9306060
  54.6630320  28.4112840  27.9371760  51.5895290  28.4343310  21.9344990
  50.9707710  28.0962860  21.2871290  51.5719740  27.7903070  22.6424180
  51.0321850  24.6127850  29.3510800  50.6193030  25.4381560  29.6050790
  50.2997800  24.0272890  29.1587160  43.1654640  27.3987750  24.2129470
  42.7611640  26.6865000  23.7175370  43.2517760  27.0540990  25.1017510
  43.6336340  31.0855310  26.3768680  43.3364630  30.4800780  25.6976460
  44.5836160  31.1232620  26.2658040  41.8783260  24.1730960  27.9928510
  42.4297850  24.2826300  27.2181760  42.3926770  24.5468560  28.7083740
  51.7221950  34.6587180  30.0391780  51.2452510  35.4659370  29.8464390
  51.0383740  34.0065510  30.1917990  42.7254770  30.8237000  33.0276480
  41.8283300  31.0476970  33.2749880  42.7507640  30.9471940  32.0787880
  49.7659990  27.6730120  18.9417740  50.2053270  26.8352550  18.7955560
  50.4788410  28.3059520  19.0281880  41.5525990  27.6950320  31.6033850
  41.4133760  28.5673120  31.9721250  40.6707350  27.3523130  31.4581790
  47.8755370  32.6126190  22.9098980  48.3151280  33.3550520  22.4954370
  47.8142260  32.8552760  23.8337940  43.3506340  33.6372020  33.8119000
  43.3221770  34.0414970  32.9447430  43.1871310  32.7082380  33.6490600
  53.3477130  18.9272930  17.2558780  53.0349790  19.0199760  18.1557850
  54.1089600  19.5053960  17.2056210  39.8659270  26.2932730  21.7136120
  39.7456870  27.0194820  21.1017390  39.5560160  25.5235640  21.2364030
  55.3021160  34.4199120  35.1083170  55.7780880  34.8982010  35.7872250
  55.9228320  34.3516610  34.3828670  37.5044640  29.4647870  27.5204760
  37.5825060  29.5996640  26.5760480  38.1186320  28.7563760  27.7132880
  38.7492270  31.1648060  23.9310940  38.3420350  31.3062650  23.0764540
  39.6405280  30.8808220  23.7282150  54.7054410  31.6111970  32.2683180
  54.8317470  31.3723850  31.3500360  54.7475790  30.7796510  32.7405260
  48.5671150  35.3139970  30.8377990  49.0815820  35.2247980  31.6400420
  47.7240230  35.6599670  31.1305900  50.5425550  35.5995310  20.2661990
  50.3826690  35.3098250  21.1643820  50.3772260  34.8235440  19.7307220
  43.0213930  35.3793840  22.0433610  42.8456410  34.4629380  21.8301410
  42.1669670  35.7381130  22.2831410  50.2451680  33.1082870  18.8259990
  49.5516840  33.1060160  18.1662270  50.9874540  32.6842190  18.3954160
  49.8101610  34.7345580  22.9008480  50.2658560  33.9534960  23.2147100
  50.1494130  35.4452400  23.4449660  54.5578420  23.6644430  33.2332920
  53.9422690  24.1724100  32.7048380  54.2374840  22.7642760  33.1758860
  37.5604160  30.5062040  30.0599220  37.7235200  30.0367400  29.2418590
  38.0256610  29.9985600  30.7248060  42.3322930  19.6367800  25.0959790
  41.8891080  20.4177340  24.7644310  42.8907920  19.9597690  25.8030730
  46.6192740  22.5036320  30.6995110  46.1572110  22.7119340  31.5115050
  46.2170850  21.6895670  30.3965780  51.6197250  23.7245270  31.8291770
  50.7690840  23.4251020  32.1500840  51.4599040  23.9687280  30.9175590
  48.7146960  25.2247020  33.9290560  49.0400370  24.3910770  33.5892790
  49.5027290  25.7475540  34.0768890  45.4481750  19.2578500  19.9765620
  44.8235930  19.2538370  20.7018930  45.3611870  18.3909460  19.5801590
  44.3698830  20.1815130  26.9549390  44.6671160  21.0877960  26.8741410
  44.9184390  19.6933910  26.3408960  42.1237150  24.7601370  22.8241040
  41.8978070  24.5438540  23.7287660  41.3429680  25.1929830  22.4787010
  49.3534910  24.7664740  21.4231690  48.7543800  25.4900540  21.2395310
  49.9014520  24.7041520  20.6408140  44.5636360  25.6586950  33.4901310
  44.4679960  24.7181680  33.3401710  45.4068340  25.8802020  33.0949380
  47.9599780  23.4028280  23.4534970  48.3529350  23.7200480  22.6403660
  48.3216630  22.5240160  23.5679490  39.6946900  22.0700620  31.6435090
  39.3010290  22.9175830  31.8507870  39.0065300  21.4326990  31.8343730
  46.2691950  22.1535590  34.7131830  45.5790270  21.9607790  35.3477920
  47.0124250  22.4370230  35.2456130  36.9963950  19.9929080  25.6765170
  36.7077000  20.5631940  26.3890150  37.7409710  19.5133530  26.0396400
  37.1834180  23.9349200  16.8867890  37.1008850  24.8779960  17.0282880
  36.8317240  23.7924110  16.0080240  48.5454920  25.9934030  27.5485750
  47.8136040  26.5020840  27.8975850  48.1479260  25.1764010  27.2474530
  44.9832310  22.6688230  25.9538240  44.9868370  22.2278180  25.1042780
  45.8783430  22.9905560  26.0610060  40.8334690  22.5514720  24.9132450
  40.4934740  23.0289950  25.6699500  40.0712010  22.0979840  24.5533550
  45.0452460  23.6700310  18.9445000  45.1665280  23.6286790  19.8930820
  44.6600970  24.5324460  18.7891730  49.0080830  21.4467710  26.9608690
  49.0253570  21.8976360  27.8050540  48.7596410  20.5473350  27.1742130
  44.0573960  25.9801450  18.3428300  43.4890860  25.5319700  17.7164210
  44.7662960  26.3394230  17.8093450  52.4351580  18.8599890  32.7995070
  52.7597350  18.1289550  33.3253050  52.4708090  18.5413530  31.8976060
  39.1343140  29.8813470  32.2195030  38.7497930  29.2407140  32.8177990
  39.4455330  30.5849590  32.7889760  45.2840280  26.7290010  27.7003650
  45.6510410  26.2548580  28.4464990  45.0945340  27.6031580  28.0411990
  38.1480770  21.4733700  23.8297120  37.8627690  21.1089370  24.6675740
  38.0859630  20.7414160  23.2160260  43.0739650  25.7698650  30.0187860
  42.7696720  26.6490630  30.2438220  44.0286110  25.8298440  30.0545300
  41.6021440  29.9759640  20.6154710  40.8283700  29.4357260  20.4553430
  42.3316070  29.4566250  20.2772470  52.3609420  28.9725000  26.4081100
  53.0808540  29.4680290  26.0177210  52.1591240  28.2942890  25.7634970
  47.8219360  20.3662960  20.5510490  47.0083970  19.8676130  20.4755800
  47.6281310  21.2061210  20.1346840  47.7428220  29.0434060  32.2950100
  47.6765530  28.1229730  32.0407690  47.1133360  29.1409500  33.0094740
  50.5367750  24.7382610  18.8472650  51.4247370  25.0499840  18.6723990
  50.5072840  23.8654860  18.4553230  41.6458840  29.6440020  24.2533520
  42.1637510  28.8408280  24.1990410  41.1942860  29.5819160  25.0950350
  46.5328340  30.9106300  19.5260820  46.8744040  31.6548530  19.0304140
  45.7041050  31.2237420  19.8885650  39.1303380  26.6101390  31.1659220
  38.7718320  27.2755240  31.7532560  38.8357940  25.7784940  31.5371840
  42.3316500  27.0685630  34.0498770  42.0316640  27.2142810  33.1526590
  43.1027740  26.5090920  33.9572160  47.6744950  31.8654630  32.0453900
  47.6889490  30.9335590  31.8272810  46.9670050  31.9514390  32.6843670
  52.8082020  26.0494450  18.3152510  52.7245740  26.4808670  17.4648950
  53.5276210  26.5092800  18.7479330  53.8856160  28.5061970  31.3922480
  53.1604350  29.0990750  31.1951870  54.4131620  28.4985510  30.5935850
  53.8369270  32.9036710  21.0434640  53.1945430  32.2492330  21.3178360
  53.4499930  33.3091800  20.2675310  49.4155750  30.2322140  24.8906330
  49.7679570  29.6350270  24.2307700  48.5318080  29.9066370  25.0614580
  45.5019030  30.9919830  22.2976740  46.1890160  31.5389040  22.6784330
  44.7151450  31.5360560  22.3326350  37.6411430  26.6092650  17.7893820
  38.5106280  26.8917450  18.0729740  37.1501750  27.4228520  17.6742630
  44.8046240  27.9965860  21.9102100  45.2609020  28.8071110  22.1362290
  44.4534450  27.6789000  22.7420590  47.1078850  33.5072200  29.1394400
  47.7521070  33.7131580  29.8167820  47.4708290  32.7460600  28.6865250
  40.7058020  18.3403510  22.3824620  40.5772650  18.3321410  23.3309540
  39.8820040  18.6786600  22.0315630  48.3810930  31.5104550  27.8571850
  49.0233160  30.8097710  27.9704020  48.9060280  32.2902990  27.6768740
  52.2266650  31.7953170  17.5810990  52.0004230  31.0783610  18.1735630
  51.8362850  31.5465610  16.7432740  50.1548550  32.3099450  31.0607910
  50.4904790  32.8966140  31.7385830  49.2348890  32.1792160  31.2905700
  38.0082680  35.8220030  18.3555450  38.3680320  36.4209370  17.7012720
  37.8675020  36.3679920  19.1290480  37.7051950  20.0994630  31.8431320
  36.9910470  20.2991550  32.4483930  38.1246990  19.3234200  32.2146120
  51.8082900  29.7125110  19.2425150  51.5204600  30.1737800  20.0303030
  52.6035070  29.2522880  19.5109370  45.9837130  32.3590780  34.2295970
  45.6634000  31.6400020  34.7741660  45.3095490  33.0345850  34.3032030
  44.0251300  33.2051230  19.1729120  44.0161400  33.9380920  18.5573630
  43.1049660  32.9582810  19.2656080  39.6257940  28.4266120  19.9175880
  39.0185890  29.1665020  19.9271180  40.1007290  28.5165480  19.0914080
  49.1990730  22.5916940  29.5932770  49.5671550  21.7712150  29.9212340
  48.3388930  22.6518830  30.0088420  52.5652760  21.5473880  20.4020330
  51.9365920  21.6519550  19.6878560  52.0704680  21.7670660  21.1914210
  47.0110900  33.2679470  17.8354310  47.1122880  33.0643460  16.9056290
  46.1112640  33.0137750  18.0402090  44.5336790  23.8259830  21.8178210
  43.8252940  24.2946170  22.2591820  44.8181270  23.1681840  22.4523400
  46.1592720  25.2456530  29.8170740  46.6577970  25.7202350  30.4822590
  46.3015670  24.3220050  30.0240770  48.5652220  20.5510490  23.2574000
  48.4420000  20.5696620  22.3083510  49.5136780  20.5989430  23.3772400
  45.6529010  35.7865790  22.5301980  45.9070510  35.7487180  21.6081350
  44.7041490  35.6599120  22.5230230  42.7371810  22.1344910  19.1928920
  43.5862340  22.5715060  19.1269110  42.3703080  22.4465170  20.0200980
  53.3659580  21.4624490  30.6599130  52.8633180  22.2029890  30.9992940
  54.1816240  21.8508490  30.3435920  51.6581590  26.7057670  24.1060490
  50.7171730  26.7207900  24.2808180  51.9725660  25.9193630  24.5520790
  41.6363230  28.3877270  17.6664450  42.4026500  28.2758630  18.2289880
  41.7137920  27.6915240  17.0141220  40.3309990  25.8202340  18.3497340
  40.4113580  24.8729850  18.4614740  41.2229740  26.1509220  18.4558000
  53.6607170  33.8766520  25.7814750  53.7854590  34.6997690  26.2538560
  54.5272730  33.6657250  25.4338900  41.1324700  35.9697730  25.4531880
  41.8687180  35.4213190  25.7240450  41.5165620  36.8353740  25.3137870
  38.0170180  32.0371300  21.3273390  37.0909960  32.2792440  21.3178800
  38.4826610  32.8645560  21.2058140  44.2427010  35.1428040  17.2757450
  45.0355620  35.4316870  16.8239240  43.7231360  34.7120210  16.5969930
  48.9747610  31.2623670  34.5892870  48.3685770  31.2855270  33.8488620
  48.6701720  30.5306710  35.1260120  50.4047980  34.9903960  33.2002280
  51.3569730  34.9061980  33.1502520  50.2576200  35.6545670  33.8736070
  53.2957180  34.3698170  18.6994190  53.0098690  33.9563310  17.8848370
  53.0976730  35.2985880  18.5794710  37.8580790  27.6417260  33.5853510
  38.3619810  27.0624540  34.1569740  37.1188210  27.9257490  34.1229880
  44.7604410  30.3631450  17.1399800  44.6555050  29.7483800  17.8661180
  44.5928630  29.8397340  16.3562810  44.9118730  29.0488250  33.1189030
  44.1464400  29.6173250  33.0343700  45.0934690  28.7564460  32.2257260
  48.0007140  29.4251480  17.7441790  47.4517240  29.8720780  18.3884530
  48.6226400  28.9200730  18.2679460  52.0542080  30.7793580  33.6764050
  52.7951550  31.1169340  33.1731510  51.2914760  30.9485640  33.1233820
  39.8903870  25.7846850  34.4803580  39.9309210  25.4860720  35.3888810
  40.7449370  26.1854460  34.3211100  43.6682260  28.3842400  19.6407090
  44.0898680  28.2182270  20.4838480  43.7933100  27.5742630  19.1462230
  41.8309680  24.3638950  32.4478070  41.3006140  23.8729900  31.8201410
  42.4997750  24.7923150  31.9136000  46.1809900  27.4080010  16.8884190
  46.7015560  26.6929030  16.5225340  46.8278300  28.0465880  17.1884700
  50.7287740  28.8308410  32.2119260  51.1428760  28.9853490  33.0609680
  49.7938740  28.9563630  32.3745040  51.2009910  26.1704570  34.2158410
  51.7830680  25.4156890  34.1278890  51.3771680  26.7012010  33.4389890
  42.3181980  21.3301320  32.5275360  42.2238850  20.7122070  31.8026230
  41.7379370  22.0567610  32.3005270  45.0843420  19.8874560  29.5602750
  44.6360720  19.9098820  28.7148300  44.4508620  19.4893580  30.1573050
  45.4902970  28.7828890  30.1815190  45.9091080  29.6261620  30.0091430
  44.5711600  28.9200930  29.9521970  47.8266870  26.5145070  31.5653030
  47.9463080  25.9186210  32.3047870  48.6860870  26.5514760  31.1454330
  50.1654770  27.0682260  30.1415540  49.6389990  27.5924880  29.5380680
  50.5086110  27.7009650  30.7725270  42.5641160  24.4575630  16.5865250
  42.3630220  23.5942990  16.9478590  42.3933210  24.3708990  15.6486850
  43.3410390  35.0881900  31.2972920  42.8031480  35.8127960  30.9781620
  43.5944350  34.6112240  30.5070260  44.5935640  23.0566420  32.8228850
  45.1835330  22.7482270  33.5106670  43.7755880  22.5846170  32.9788750
  49.4129070  22.6732230  33.0561870  48.7244590  22.0113770  32.9911860
  50.1335090  22.2270500  33.5010330  50.0429470  19.2683860  19.1152130
  50.3231760  18.4251760  19.4711550  49.2695200  19.5006970  19.6290880
  41.3623960  21.5576250  16.5743130  41.6649860  21.5643680  15.6662280
  42.1018550  21.2074110  17.0710790  46.1972600  36.3233110  31.5559570
  46.1231300  37.2268250  31.8631940  45.2951440  36.0045010  31.5281640
  44.5808890  20.5010870  17.5599330  44.2330890  19.8234860  16.9801780
  44.7821660  20.0400380  18.3742720  46.7457930  35.4891620  19.1785930
  47.6408720  35.8276590  19.2004690  46.7775560  34.7671030  18.5510210
  40.3854090  30.8618670  17.4072930  40.8228960  31.4048340  18.0630510
  40.8701820  30.0365620  17.4169270  37.5999890  33.6507700  24.8593190
  37.9302900  32.7828760  24.6271830  38.0290890  33.8566220  25.6898150
  42.1961810  31.9816710  22.5195160  41.8957350  31.8581680  23.4199070
  42.0899300  31.1225300  22.1110890  38.0890100  34.5178290  27.5974820
  37.6521090  34.6979090  28.4298970  38.6567780  35.2752910  27.4556540
  53.7252280  34.0195290  31.8852130  53.1254270  34.0787850  31.1416050
  53.8546180  33.0800270  32.0148980  54.9653730  31.7613110  17.2221840
  54.1346690  31.8289760  17.6929070  55.1425560  32.6517230  16.9188700
  54.4210190  28.5060590  19.7256040  55.1829100  29.0757240  19.8315730
  54.4364560  27.9387790  20.4964350  37.9214530  27.0298520  23.9563700
  37.2663370  26.7610160  23.3123400  38.7592480  26.9203000  23.5065680
  55.4270160  29.3610690  24.5697970  55.7978990  28.5778010  24.1633940
  56.0672090  30.0499790  24.3915270  52.4103920  30.7447270  29.9828290
  51.5963760  31.1744430  30.2454080  52.8178120  31.3565680  29.3697340
  54.4729360  28.7994960  16.8828560  54.7478200  29.7073840  16.7547780
  54.2840100  28.7357490  17.8190550  50.8704970  21.8239810  18.1782190
  51.2889850  21.6370790  17.3378850  50.5641030  20.9718860  18.4885120
  54.3694700  26.7363950  21.8757990  53.9938300  25.9691880  21.4439280
  53.6397820  27.1186650  22.3632920  38.9590460  27.4151090  28.4967040
  39.3263500  27.3278490  29.3763060  38.3901280  26.6517640  28.3973900
  53.7594320  25.8835470  31.5097510  53.5280410  25.6548220  30.6095460
  54.0198870  26.8035020  31.4642400  38.5106460  24.3260180  32.4025460
  37.6162510  24.2926940  32.7419170  39.0504010  24.5246970  33.1676710
  52.1982390  21.1091900  34.2877210  53.0752570  21.1175300  34.6711210
  52.2103230  20.3722740  33.6769560  37.1352610  24.2397450  19.8989030
  36.2316690  24.5027650  19.7240690  37.6193230  24.5108620  19.1188990
  53.6445660  24.9621440  25.1765230  54.1683140  24.4684090  24.5455400
  54.2305080  25.0971800  25.9212800  53.8235380  25.0461310  28.6984780
  52.8738090  25.0124850  28.8129770  54.0048390  25.9561420  28.4634550
  39.6779820  23.2962990  17.8083410  40.3871520  22.8746210  17.3230690
  38.9619760  23.3638220  17.1766760  39.3253980  19.3502320  16.8486060
  40.0482110  19.8911260  17.1667280  39.5978500  19.0765740  15.9727600
  53.1345630  24.2194790  21.1157640  53.6304750  23.9865660  21.9006520
  52.9361700  23.3806630  20.6995280  39.0146170  18.6008510  26.7508680
  39.6622360  18.0505890  26.3103840  39.4348010  18.8551660  27.5724490
  54.5632790  22.8555740  23.6495320  54.4532070  22.7011780  24.5877590
  55.3240380  22.3276680  23.4070730  52.9098510  18.7949870  30.1078320
  53.5470730  19.4084010  30.4737510  53.0573400  18.8310530  29.1627550
  55.4523060  20.6863660  16.8901460  56.3772370  20.5544840  16.6819750
  55.4298850  20.7656480  17.8437910  55.5261550  21.4574320  19.5158170
  54.7313050  21.3919440  20.0451080  55.7304830  22.3924960  19.5043520
  52.4679970  35.4965870  23.5096560  53.0639040  35.1750440  22.8330980
  52.7258120  35.0237690  24.3009830  38.7678170  18.7564180  29.4934000
  38.4192990  19.2128000  30.2592180  38.4365870  17.8621310  29.5756430
  40.3742540  31.9283780  33.6587190  40.3312170  31.5576690  34.5401650
  40.5053550  32.8661350  33.7989010  44.0748570  33.4843370  29.2596910
  43.8339930  33.7517930  28.3727430  45.0151210  33.6549100  29.3147770
  46.2802990  19.9476060  33.0153420  46.2191880  20.5397890  33.7648830
  47.2203370  19.8402020  32.8703680  48.9177550  19.6046120  32.6545710
  49.5317960  19.9225410  31.9926790  49.4627110  19.1194710  33.2741570
  55.3352730  35.5037750  30.0607550  54.8411010  35.9006620  29.3434680
  54.7266020  34.8786960  30.4544830  39.4398810  18.2840380  32.7684770
  39.9881800  18.1028430  32.0050880  39.5054120  17.4934490  33.3041080
  40.2130570  34.8746030  30.7784970  39.6190890  34.7430730  31.5175010
  40.2054410  34.0384170  30.3127070  49.6585590  18.1678260  28.9815000
  48.7845430  18.5013370  28.7787930  49.5496340  17.6951440  29.8066870
  50.5657570  20.3749130  30.3656720  50.2370930  19.5600890  29.9858450
  51.5139870  20.3318940  30.2422410  53.0192180  36.1461170  27.3394290
  52.5595150  36.8976980  26.9652310  52.3904640  35.4267640  27.2809090
  39.8442800  32.2404410  29.7293010  39.1176860  31.6209700  29.6618960
  39.9051950  32.6345020  28.8591090  43.4487900  34.4549410  26.5142420
  43.9652920  33.8436770  25.9890680  44.0985280  34.9578190  27.0053430
  46.1883400  35.3457900  27.3411400  46.4761210  35.0912200  26.4644410
  46.7006620  34.7935260  27.9316970  47.4060410  19.0848100  27.9207910
  46.6232200  19.5593600  28.2004670  47.1123340  18.1802930  27.8121090
  51.9581480  19.7871200  25.9657000  52.3989570  19.7316300  25.1178600
  51.6889070  20.7029210  26.0367180  53.8220050  19.4186440  23.9765820
  53.7608450  18.4747660  23.8296840  54.6012080  19.5266530  24.5219280
  38.1272800  35.5578800  22.9389770  37.9594840  34.9249480  23.6371660
  37.2607310  35.7638200  22.5883960  38.7500820  19.3895580  20.4421630
  39.5080180  19.5024460  19.8685660  38.2877990  20.2264780  20.3965060
  45.2914630  21.5034850  23.4323940  44.4789140  21.1291740  23.0919820
  45.7956270  20.7479930  23.7345130  49.7939610  18.1677300  24.6707010
  50.3968980  18.7397510  25.1455530  49.0532600  18.7316740  24.4480910
  52.9374210  18.5698860  19.9447290  53.1324840  19.4682310  20.2114720
  52.1504080  18.3385940  20.4380240  39.7335500  34.2512030  20.3839910
  39.2083120  34.6320060  19.6801870  39.6580080  34.8762800  21.1049620
  41.1225970  19.9159630  18.9823600  41.6518730  19.1289430  18.8531550
  41.7554290  20.5950820  19.2159130  43.3163810  19.6534770  22.0368990
  42.6866550  18.9522080  22.2039120  42.7768950  20.4138900  21.8202150
  46.2555760  36.2674000  34.7079600  47.1823070  36.0318270  34.7515560
  46.2406190  37.0946000  34.2265630  54.4900820  35.8099570  21.7053850
  54.6653010  35.1237310  21.0614770  53.7922390  36.3346620  21.3130520
  43.4419370  18.9318750  34.4721480  43.1603640  19.4352350  33.7082300
  43.8239070  18.1340500  34.1063610  42.3328470  36.1994410  19.2589160
  43.0647290  35.9153690  18.7113050  42.5922140  35.9607690  20.1488540
  41.4943260  32.3159140  19.2635490  40.8652140  32.7844240  19.8121320
  41.6091090  31.4708360  19.6981680  50.0434830  18.3472330  35.0501950
  49.9300280  18.6666940  35.9453470  50.8604570  18.7484840  34.7539230
  52.8233320  35.4943860  34.5320640  53.6158640  34.9993090  34.3246600
  53.1166470  36.1734000  35.1396250  48.9492980  26.3664800   5.4136690
  48.8687030  25.4519410   5.1428400  48.5357400  26.8631870   4.7076400
  47.0811020  28.1443820   7.2945960  46.3053120  27.6644260   7.5844530
  47.7323950  27.4649470   7.1202120  41.0976850  28.4563630   8.1721720
  40.2661730  28.2012340   8.5718230  41.7057830  28.5274400   8.9079640
  51.1018450  32.5504010   6.0745090  50.6399980  31.7791250   6.4032260
  51.9144000  32.5770080   6.5797540  41.0778110  32.4903720   8.3679740
  41.3806150  31.6001460   8.1889960  41.8221700  33.0473940   8.1401990
  37.4701810  26.0171170   7.8403810  38.0417920  25.2493370   7.8407450
  37.4703350  26.3159930   6.9310420  47.3281760  34.8362020   5.6949080
  46.7093200  35.2919520   5.1243520  48.1833540  34.9913480   5.2938780
  46.5220010  30.8201010   7.3016120  46.4528290  29.8790950   7.1405250
  47.2839870  30.9102420   7.8738690  38.7126680  21.4255530   9.6272740
  38.5329520  20.5281280   9.9075500  38.3106760  21.9727400  10.3019690
  47.5525180  23.6271390   7.5285050  47.9290000  22.7543270   7.4158720
  47.4544690  23.9630090   6.6375490  41.6830190  21.9997020   2.9902490
  41.7896940  22.9000750   3.2971250  40.7722550  21.9514990   2.6997140
  51.3349300  21.1221830   4.4613390  52.1558920  20.6318400   4.5038870
  51.3683380  21.7119490   5.2145230  39.3313350  23.9216030   8.2355080
  40.0123460  24.1854400   8.8542480  39.0161400  23.0816900   8.5693090
  43.5237920  24.9683390   7.3227670  44.0316140  25.4664360   7.9632690
  44.0551160  24.1918590   7.1467030  55.6248850  23.1388580  11.0257020
  54.9201020  23.5270290  10.5072130  55.8906770  23.8338870  11.6277950
  41.8074020  19.6081950  11.5891090  41.8092460  20.1254340  10.7836990
  40.9778330  19.1312130  11.5661020  48.1945110  29.7201260   3.0880990
  47.5762380  30.1850710   2.5243710  48.7068360  30.4128740   3.5050500
  43.0576870  29.2477130   9.7664590  42.7246250  29.8746050  10.4085660
  43.2343550  29.7739010   8.9866260  51.5710780  23.0622210   7.2340930
  50.8666350  23.3507100   7.8144040  51.9322940  23.8722320   6.8740490
  41.4889350  21.3191910   9.5961540  41.8306160  22.1633960   9.3015410
  40.5505160  21.4675650   9.7126880  42.2695970  31.2157930  11.5813770
  42.8869970  31.8909010  11.2998220  41.4089090  31.6245910  11.4901270
  53.1873560  32.6797340   9.4968410  52.5037080  33.3496450   9.4885080
  53.7267850  32.8777990   8.7313270  54.6397700  22.5077000   7.6250140
  53.6922610  22.5415980   7.7565570  54.9647690  23.3215950   8.0099500
  45.1717240  18.8074180   5.9206130  45.4792220  18.2521070   5.2041630
  44.2417940  18.9418640   5.7379120  50.7232300  34.5241470   8.2113590
  50.7359460  34.1203760   7.3435850  50.1707520  35.2988760   8.1075020
  52.0177720  31.2457690   3.3003760  51.9074050  30.3032020   3.4253180
  52.0145970  31.6073330   4.1866520  50.1217740  29.4271310   9.5396200
  50.5386530  29.2131420   8.7049660  50.8457560  29.6844100  10.1104820
  47.5598000  26.8723010   2.6566250  46.6327280  26.8060390   2.8854720
  47.7122820  27.8103140   2.5421490  54.0679840  27.8258530   9.6312440
  53.2398470  27.8951620   9.1562570  54.6630320  28.4112840   9.1628270
  51.5895290  28.4343310   3.1601500  50.9707710  28.0962860   2.5127800
  51.5719740  27.7903070   3.8680690  51.0321850  24.6127850  10.5767310
  50.6193030  25.4381560  10.8307300  50.2997800  24.0272890  10.3843670
  43.1654640  27.3987750   5.4385980  42.7611640  26.6865000   4.9431880
  43.2517760  27.0540990   6.3274020  43.6336340  31.0855310   7.6025190
  43.3364630  30.4800780   6.9232970  44.5836160  31.1232620   7.4914550
  41.8783260  24.1730960   9.2185020  42.4297850  24.2826300   8.4438270
  42.3926770  24.5468560   9.9340250  51.7221950  34.6587180  11.2648290
  51.2452510  35.4659370  11.0720900  51.0383740  34.0065510  11.4174500
  42.7254770  30.8237000  14.2532990  41.8283300  31.0476970  14.5006390
  42.7507640  30.9471940  13.3044390  41.5525990  27.6950320  12.8290360
  41.4133760  28.5673120  13.1977760  40.6707350  27.3523130  12.6838300
  47.8755370  32.6126190   4.1355490  48.3151280  33.3550520   3.7210880
  47.8142260  32.8552760   5.0594450  43.3506340  33.6372020  15.0375510
  43.3221770  34.0414970  14.1703940  43.1871310  32.7082380  14.8747110
  39.8659270  26.2932730   2.9392630  39.7456870  27.0194820   2.3273900
  39.5560160  25.5235640   2.4620540  55.3021160  34.4199120  16.3339680
  55.7780880  34.8982010  17.0128760  55.9228320  34.3516610  15.6085180
  37.5044640  29.4647870   8.7461270  37.5825060  29.5996640   7.8016990
  38.1186320  28.7563760   8.9389390  38.7492270  31.1648060   5.1567450
  38.3420350  31.3062650   4.3021050  39.6405280  30.8808220   4.9538660
  54.7054410  31.6111970  13.4939690  54.8317470  31.3723850  12.5756870
  54.7475790  30.7796510  13.9661770  48.5671150  35.3139970  12.0634500
  49.0815820  35.2247980  12.8656930  47.7240230  35.6599670  12.3562410
  43.0213930  35.3793840   3.2690120  42.8456410  34.4629380   3.0557920
  42.1669670  35.7381130   3.5087920  49.8101610  34.7345580   4.1264990
  50.2658560  33.9534960   4.4403610  50.1494130  35.4452400   4.6706170
  54.5578420  23.6644430  14.4589430  53.9422690  24.1724100  13.9304890
  54.2374840  22.7642760  14.4015370  37.5604160  30.5062040  11.2855730
  37.7235200  30.0367400  10.4675100  38.0256610  29.9985600  11.9504570
  42.3322930  19.6367800   6.3216300  41.8891080  20.4177340   5.9900820
  42.8907920  19.9597690   7.0287240  46.6192740  22.5036320  11.9251620
  46.1572110  22.7119340  12.7371560  46.2170850  21.6895670  11.6222290
  51.6197250  23.7245270  13.0548280  50.7690840  23.4251020  13.3757350
  51.4599040  23.9687280  12.1432100  48.7146960  25.2247020  15.1547070
  49.0400370  24.3910770  14.8149300  49.5027290  25.7475540  15.3025400
  44.3698830  20.1815130   8.1805900  44.6671160  21.0877960   8.0997920
  44.9184390  19.6933910   7.5665470  42.1237150  24.7601370   4.0497550
  41.8978070  24.5438540   4.9544170  41.3429680  25.1929830   3.7043520
  49.3534910  24.7664740   2.6488200  48.7543800  25.4900540   2.4651820
  49.9014520  24.7041520   1.8664650  44.5636360  25.6586950  14.7157820
  44.4679960  24.7181680  14.5658220  45.4068340  25.8802020  14.3205890
  47.9599780  23.4028280   4.6791480  48.3529350  23.7200480   3.8660170
  48.3216630  22.5240160   4.7936000  39.6946900  22.0700620  12.8691600
  39.3010290  22.9175830  13.0764380  39.0065300  21.4326990  13.0600240
  46.2691950  22.1535590  15.9388340  45.5790270  21.9607790  16.5734430
  47.0124250  22.4370230  16.4712640  36.9963950  19.9929080   6.9021680
  36.7077000  20.5631940   7.6146660  37.7409710  19.5133530   7.2652910
  48.5454920  25.9934030   8.7742260  47.8136040  26.5020840   9.1232360
  48.1479260  25.1764010   8.4731040  44.9832310  22.6688230   7.1794750
  44.9868370  22.2278180   6.3299290  45.8783430  22.9905560   7.2866570
  40.8334690  22.5514720   6.1388960  40.4934740  23.0289950   6.8956010
  40.0712010  22.0979840   5.7790060  49.0080830  21.4467710   8.1865200
  49.0253570  21.8976360   9.0307050  48.7596410  20.5473350   8.3998640
  52.4351580  18.8599890  14.0251580  52.7597350  18.1289550  14.5509560
  52.4708090  18.5413530  13.1232570  39.1343140  29.8813470  13.4451540
  38.7497930  29.2407140  14.0434500  39.4455330  30.5849590  14.0146270
  45.2840280  26.7290010   8.9260160  45.6510410  26.2548580   9.6721500
  45.0945340  27.6031580   9.2668500  38.1480770  21.4733700   5.0553630
  37.8627690  21.1089370   5.8932250  38.0859630  20.7414160   4.4416770
  43.0739650  25.7698650  11.2444370  42.7696720  26.6490630  11.4694730
  44.0286110  25.8298440  11.2801810  41.6021440  29.9759640   1.8411220
  40.8283700  29.4357260   1.6809940  42.3316070  29.4566250   1.5028980
  52.3609420  28.9725000   7.6337610  53.0808540  29.4680290   7.2433720
  52.1591240  28.2942890   6.9891480  47.8219360  20.3662960   1.7767000
  47.0083970  19.8676130   1.7012310  47.6281310  21.2061210   1.3603350
  47.7428220  29.0434060  13.5206610  47.6765530  28.1229730  13.2664200
  47.1133360  29.1409500  14.2351250  41.6458840  29.6440020   5.4790030
  42.1637510  28.8408280   5.4246920  41.1942860  29.5819160   6.3206860
  39.1303380  26.6101390  12.3915730  38.7718320  27.2755240  12.9789070
  38.8357940  25.7784940  12.7628350  42.3316500  27.0685630  15.2755280
  42.0316640  27.2142810  14.3783100  43.1027740  26.5090920  15.1828670
  47.6744950  31.8654630  13.2710410  47.6889490  30.9335590  13.0529320
  46.9670050  31.9514390  13.9100180  53.8856160  28.5061970  12.6178990
  53.1604350  29.0990750  12.4208380  54.4131620  28.4985510  11.8192360
  53.8369270  32.9036710   2.2691150  53.1945430  32.2492330   2.5434870
  53.4499930  33.3091800   1.4931820  49.4155750  30.2322140   6.1162840
  49.7679570  29.6350270   5.4564210  48.5318080  29.9066370   6.2871090
  45.5019030  30.9919830   3.5233250  46.1890160  31.5389040   3.9040840
  44.7151450  31.5360560   3.5582860  44.8046240  27.9965860   3.1358610
  45.2609020  28.8071110   3.3618800  44.4534450  27.6789000   3.9677100
  47.1078850  33.5072200  10.3650910  47.7521070  33.7131580  11.0424330
  47.4708290  32.7460600   9.9121760  40.7058020  18.3403510   3.6081130
  40.5772650  18.3321410   4.5566050  39.8820040  18.6786600   3.2572140
  48.3810930  31.5104550   9.0828360  49.0233160  30.8097710   9.1960530
  48.9060280  32.2902990   8.9025250  50.1548550  32.3099450  12.2864420
  50.4904790  32.8966140  12.9642340  49.2348890  32.1792160  12.5162210
  37.7051950  20.0994630  13.0687830  36.9910470  20.2991550  13.6740440
  38.1246990  19.3234200  13.4402630  37.9924540  34.0874890  14.0554360
  38.1015660  33.1469630  13.9149750  37.3405100  34.3529640  13.4068090
  45.9837130  32.3590780  15.4552480  45.6634000  31.6400020  15.9998170
  45.3095490  33.0345850  15.5288540  49.1990730  22.5916940  10.8189280
  49.5671550  21.7712150  11.1468850  48.3388930  22.6518830  11.2344930
  44.5336790  23.8259830   3.0434720  43.8252940  24.2946170   3.4848330
  44.8181270  23.1681840   3.6779910  46.1592720  25.2456530  11.0427250
  46.6577970  25.7202350  11.7079100  46.3015670  24.3220050  11.2497280
  48.5652220  20.5510490   4.4830510  48.4420000  20.5696620   3.5340020
  49.5136780  20.5989430   4.6028910  45.6529010  35.7865790   3.7558490
  45.9070510  35.7487180   2.8337860  44.7041490  35.6599120   3.7486740
  53.3659580  21.4624490  11.8855640  52.8633180  22.2029890  12.2249450
  54.1816240  21.8508490  11.5692430  51.6581590  26.7057670   5.3317000
  50.7171730  26.7207900   5.5064690  51.9725660  25.9193630   5.7777300
  53.6607170  33.8766520   7.0071260  53.7854590  34.6997690   7.4795070
  54.5272730  33.6657250   6.6595410  41.1324700  35.9697730   6.6788390
  41.8687180  35.4213190   6.9496960  41.5165620  36.8353740   6.5394380
  38.0170180  32.0371300   2.5529900  37.0909960  32.2792440   2.5435310
  38.4826610  32.8645560   2.4314650  40.1382980  35.1543800  15.8673970
  40.9395710  35.4755850  16.2809370  39.6234800  34.7939380  16.5893880
  48.9747610  31.2623670  15.8149380  48.3685770  31.2855270  15.0745130
  48.6701720  30.5306710  16.3516630  50.4047980  34.9903960  14.4258790
  51.3569730  34.9061980  14.3759030  50.2576200  35.6545670  15.0992580
  37.8580790  27.6417260  14.8110020  38.3619810  27.0624540  15.3826250
  37.1188210  27.9257490  15.3486390  44.9118730  29.0488250  14.3445540
  44.1464400  29.6173250  14.2600210  45.0934690  28.7564460  13.4513770
  52.0542080  30.7793580  14.9020560  52.7951550  31.1169340  14.3988020
  51.2914760  30.9485640  14.3490330  39.8903870  25.7846850  15.7060090
  39.9309210  25.4860720  16.6145320  40.7449370  26.1854460  15.5467610
  41.8309680  24.3638950  13.6734580  41.3006140  23.8729900  13.0457920
  42.4997750  24.7923150  13.1392510  50.7287740  28.8308410  13.4375770
  51.1428760  28.9853490  14.2866190  49.7938740  28.9563630  13.6001550
  51.2009910  26.1704570  15.4414920  51.7830680  25.4156890  15.3535400
  51.3771680  26.7012010  14.6646400  42.3181980  21.3301320  13.7531870
  42.2238850  20.7122070  13.0282740  41.7379370  22.0567610  13.5261780
  45.0843420  19.8874560  10.7859260  44.6360720  19.9098820   9.9404810
  44.4508620  19.4893580  11.3829560  45.4902970  28.7828890  11.4071700
  45.9091080  29.6261620  11.2347940  44.5711600  28.9200930  11.1778480
  47.8266870  26.5145070  12.7909540  47.9463080  25.9186210  13.5304380
  48.6860870  26.5514760  12.3710840  50.1654770  27.0682260  11.3672050
  49.6389990  27.5924880  10.7637190  50.5086110  27.7009650  11.9981780
  43.3410390  35.0881900  12.5229430  42.8031480  35.8127960  12.2038130
  43.5944350  34.6112240  11.7326770  44.5935640  23.0566420  14.0485360
  45.1835330  22.7482270  14.7363180  43.7755880  22.5846170  14.2045260
  49.4129070  22.6732230  14.2818380  48.7244590  22.0113770  14.2168370
  50.1335090  22.2270500  14.7266840  46.1972600  36.3233110  12.7816080
  46.1231300  37.2268250  13.0888450  45.2951440  36.0045010  12.7538150
  37.5999890  33.6507700   6.0849700  37.9302900  32.7828760   5.8528340
  38.0290890  33.8566220   6.9154660  42.1961810  31.9816710   3.7451670
  41.8957350  31.8581680   4.6455580  42.0899300  31.1225300   3.3367400
  38.0890100  34.5178290   8.8231330  37.6521090  34.6979090   9.6555480
  38.6567780  35.2752910   8.6813050  53.7252280  34.0195290  13.1108640
  53.1254270  34.0787850  12.3672560  53.8546180  33.0800270  13.2405490
  37.9214530  27.0298520   5.1820210  37.2663370  26.7610160   4.5379910
  38.7592480  26.9203000   4.7322190  55.4270160  29.3610690   5.7954480
  55.7978990  28.5778010   5.3890450  56.0672090  30.0499790   5.6171780
  52.4103920  30.7447270  11.2084800  51.5963760  31.1744430  11.4710590
  52.8178120  31.3565680  10.5953850  54.3694700  26.7363950   3.1014500
  53.9938300  25.9691880   2.6695790  53.6397820  27.1186650   3.5889430
  38.9590460  27.4151090   9.7223550  39.3263500  27.3278490  10.6019570
  38.3901280  26.6517640   9.6230410  53.7594320  25.8835470  12.7354020
  53.5280410  25.6548220  11.8351970  54.0198870  26.8035020  12.6898910
  38.5106460  24.3260180  13.6281970  37.6162510  24.2926940  13.9675680
  39.0504010  24.5246970  14.3933220  52.1982390  21.1091900  15.5133720
  53.0752570  21.1175300  15.8967720  52.2103230  20.3722740  14.9026070
  53.6445660  24.9621440   6.4021740  54.1683140  24.4684090   5.7711910
  54.2305080  25.0971800   7.1469310  53.8235380  25.0461310   9.9241290
  52.8738090  25.0124850  10.0386280  54.0048390  25.9561420   9.6891060
  53.1345630  24.2194790   2.3414150  53.6304750  23.9865660   3.1263030
  52.9361700  23.3806630   1.9251790  39.0146170  18.6008510   7.9765190
  39.6622360  18.0505890   7.5360350  39.4348010  18.8551660   8.7981000
  54.5632790  22.8555740   4.8751830  54.4532070  22.7011780   5.8134100
  55.3240380  22.3276680   4.6327240  52.9098510  18.7949870  11.3334830
  53.5470730  19.4084010  11.6994020  53.0573400  18.8310530  10.3884060
  52.4679970  35.4965870   4.7353070  53.0639040  35.1750440   4.0587490
  52.7258120  35.0237690   5.5266340  38.7678170  18.7564180  10.7190510
  38.4192990  19.2128000  11.4848690  38.4365870  17.8621310  10.8012940
  40.3742540  31.9283780  14.8843700  40.3312170  31.5576690  15.7658160
  40.5053550  32.8661350  15.0245520  44.0748570  33.4843370  10.4853420
  43.8339930  33.7517930   9.5983940  45.0151210  33.6549100  10.5404280
  46.2802990  19.9476060  14.2409930  46.2191880  20.5397890  14.9905340
  47.2203370  19.8402020  14.0960190  48.9177550  19.6046120  13.8802220
  49.5317960  19.9225410  13.2183300  49.4627110  19.1194710  14.4998080
  55.3352730  35.5037750  11.2864060  54.8411010  35.9006620  10.5691190
  54.7266020  34.8786960  11.6801340  39.4398810  18.2840380  13.9941280
  39.9881800  18.1028430  13.2307390  39.5054120  17.4934490  14.5297590
  40.2130570  34.8746030  12.0041480  39.6190890  34.7430730  12.7431520
  40.2054410  34.0384170  11.5383580  49.6585590  18.1678260  10.2071510
  48.7845430  18.5013370  10.0044440  49.5496340  17.6951440  11.0323380
  50.5657570  20.3749130  11.5913230  50.2370930  19.5600890  11.2114960
  51.5139870  20.3318940  11.4678920  53.0192180  36.1461170   8.5650800
  52.5595150  36.8976980   8.1908820  52.3904640  35.4267640   8.5065600
  39.8442800  32.2404410  10.9549520  39.1176860  31.6209700  10.8875470
  39.9051950  32.6345020  10.0847600  43.4487900  34.4549410   7.7398930
  43.9652920  33.8436770   7.2147190  44.0985280  34.9578190   8.2309940
  46.1883400  35.3457900   8.5667910  46.4761210  35.0912200   7.6900920
  46.7006620  34.7935260   9.1573480  47.4060410  19.0848100   9.1464420
  46.6232200  19.5593600   9.4261180  47.1123340  18.1802930   9.0377600
  51.9581480  19.7871200   7.1913510  52.3989570  19.7316300   6.3435110
  51.6889070  20.7029210   7.2623690  53.8220050  19.4186440   5.2022330
  53.7608450  18.4747660   5.0553350  54.6012080  19.5266530   5.7475790
  38.1272800  35.5578800   4.1646280  37.9594840  34.9249480   4.8628170
  37.2607310  35.7638200   3.8140470  45.2914630  21.5034850   4.6580450
  44.4789140  21.1291740   4.3176330  45.7956270  20.7479930   4.9601640
  49.7939610  18.1677300   5.8963520  50.3968980  18.7397510   6.3712040
  49.0532600  18.7316740   5.6737420  43.3163810  19.6534770   3.2625500
  42.6866550  18.9522080   3.4295630  42.7768950  20.4138900   3.0458660
  46.2555760  36.2674000  15.9336110  47.1823070  36.0318270  15.9772070
  46.2406190  37.0946000  15.4522140  54.4900820  35.8099570   2.9310360
  54.6653010  35.1237310   2.2871280  53.7922390  36.3346620   2.5387030
  43.4419370  18.9318750  15.6977990  43.1603640  19.4352350  14.9338810
  43.8239070  18.1340500  15.3320120  50.0434830  18.3472330  16.2758460
  49.9300280  18.6666940  17.1709980  50.8604570  18.7484840  15.9795740
  52.8233320  35.4943860  15.7577150  53.6158640  34.9993090  15.5503110
  53.1166470  36.1734000  16.3652760  48.9492980   7.5921310  61.7367160
  48.8687030   6.6775920  61.4658870  48.5357400   8.0888380  61.0306870
  47.0811020   9.3700330  63.6176430  46.3053120   8.8900770  63.9075000
  47.7323950   8.6905980  63.4432590  41.0976850   9.6820140  64.4952190
  40.2661730   9.4268850  64.8948700  41.7057830   9.7530910  65.2310110
  51.1018450  13.7760520  62.3975560  50.6399980  13.0047760  62.7262730
  51.9144000  13.8026590  62.9028010  41.0778110  13.7160230  64.6910210
  41.3806150  12.8257970  64.5120430  41.8221700  14.2730450  64.4632460
  39.5068800   4.6422030  58.2794580  38.6185500   4.9838000  58.1774460
  39.7909990   4.4422350  57.3875410  37.4701810   7.2427680  64.1634280
  38.0417920   6.4749880  64.1637920  37.4703350   7.5416440  63.2540890
  47.3281760  16.0618530  62.0179550  46.7093200  16.5176030  61.4473990
  48.1833540  16.2169990  61.6169250  46.5220010  12.0457520  63.6246590
  46.4528290  11.1047460  63.4635720  47.2839870  12.1358930  64.1969160
  38.7126680   2.6512040  65.9503210  38.5329520   1.7537790  66.2305970
  38.3106760   3.1983910  66.6250160  47.5525180   4.8527900  63.8515520
  47.9290000   3.9799780  63.7389190  47.4544690   5.1886600  62.9605960
  41.6830190   3.2253530  59.3132960  41.7896940   4.1257260  59.6201720
  40.7722550   3.1771500  59.0227610  51.3349300   2.3478340  60.7843860
  52.1558920   1.8574910  60.8269340  51.3683380   2.9376000  61.5375700
  39.3313350   5.1472540  64.5585550  40.0123460   5.4110910  65.1772950
  39.0161400   4.3073410  64.8923560  43.5237920   6.1939900  63.6458140
  44.0316140   6.6920870  64.2863160  44.0551160   5.4175100  63.4697500
  55.6248850   4.3645090  67.3487490  54.9201020   4.7526800  66.8302600
  55.8906770   5.0595380  67.9508420  48.1945110  10.9457770  59.4111460
  47.5762380  11.4107220  58.8474180  48.7068360  11.6385250  59.8280970
  43.0576870  10.4733640  66.0895060  42.7246250  11.1002560  66.7316130
  43.2343550  10.9995520  65.3096730  51.5710780   4.2878720  63.5571400
  50.8666350   4.5763610  64.1374510  51.9322940   5.0978830  63.1970960
  41.4889350   2.5448420  65.9192010  41.8306160   3.3890470  65.6245880
  40.5505160   2.6932160  66.0357350  42.2695970  12.4414440  67.9044240
  42.8869970  13.1165520  67.6228690  41.4089090  12.8502420  67.8131740
  37.5628310  11.6314300  56.7851090  37.1856290  12.1201400  56.0535990
  37.8201380  12.3039580  57.4157620  53.1873560  13.9053850  65.8198880
  52.5037080  14.5752960  65.8115550  53.7267850  14.1034500  65.0543740
  54.6397700   3.7333510  63.9480610  53.6922610   3.7672490  64.0796040
  54.9647690   4.5472460  64.3329970  50.7232300  15.7497980  64.5344060
  50.7359460  15.3460270  63.6666320  50.1707520  16.5245270  64.4305490
  52.0177720  12.4714200  59.6234230  51.9074050  11.5288530  59.7483650
  52.0145970  12.8329840  60.5096990  50.1217740  10.6527820  65.8626670
  50.5386530  10.4387930  65.0280130  50.8457560  10.9100610  66.4335290
  47.5598000   8.0979520  58.9796720  46.6327280   8.0316900  59.2085190
  47.7122820   9.0359650  58.8651960  47.5467080   4.3696520  55.9763880
  46.6070750   4.5310480  56.0616340  47.8650340   5.0882200  55.4299870
  54.0679840   9.0515040  65.9542910  53.2398470   9.1208130  65.4793040
  54.6630320   9.6369350  65.4858740  51.5895290   9.6599820  59.4831970
  50.9707710   9.3219370  58.8358270  51.5719740   9.0159580  60.1911160
  51.0321850   5.8384360  66.8997780  50.6193030   6.6638070  67.1537770
  50.2997800   5.2529400  66.7074140  43.1654640   8.6244260  61.7616450
  42.7611640   7.9121510  61.2662350  43.2517760   8.2797500  62.6504490
  43.6336340  12.3111820  63.9255660  43.3364630  11.7057290  63.2463440
  44.5836160  12.3489130  63.8145020  41.8783260   5.3987470  65.5415490
  42.4297850   5.5082810  64.7668740  42.3926770   5.7725070  66.2570720
  51.7221950  15.8843690  67.5878760  51.2452510  16.6915880  67.3951370
  51.0383740  15.2322020  67.7404970  49.7659990   8.8986630  56.4904720
  50.2053270   8.0609060  56.3442540  50.4788410   9.5316030  56.5768860
  47.8755370  13.8382700  60.4585960  48.3151280  14.5807030  60.0441350
  47.8142260  14.0809270  61.3824920  39.8659270   7.5189240  59.2623100
  39.7456870   8.2451330  58.6504370  39.5560160   6.7492150  58.7851010
  37.5044640  10.6904380  65.0691740  37.5825060  10.8253150  64.1247460
  38.1186320   9.9820270  65.2619860  38.7492270  12.3904570  61.4797920
  38.3420350  12.5319160  60.6251520  39.6405280  12.1064730  61.2769130
  50.5425550  16.8251820  57.8148970  50.3826690  16.5354760  58.7130800
  50.3772260  16.0491950  57.2794200  43.0213930  16.6050350  59.5920590
  42.8456410  15.6885890  59.3788390  42.1669670  16.9637640  59.8318390
  50.2451680  14.3339380  56.3746970  49.5516840  14.3316670  55.7149250
  50.9874540  13.9098700  55.9441140  49.8101610  15.9602090  60.4495460
  50.2658560  15.1791470  60.7634080  50.1494130  16.6708910  60.9936640
  37.5604160  11.7318550  67.6086200  37.7235200  11.2623910  66.7905570
  38.0256610  11.2242110  68.2735040  46.6192740   3.7292830  68.2482090
  46.1572110   3.9375850  69.0602030  46.2170850   2.9152180  67.9452760
  42.1237150   5.9857880  60.3728020  41.8978070   5.7695050  61.2774640
  41.3429680   6.4186340  60.0273990  49.3534910   5.9921250  58.9718670
  48.7543800   6.7157050  58.7882290  49.9014520   5.9298030  58.1895120
  47.9599780   4.6284790  61.0021950  48.3529350   4.9456990  60.1890640
  48.3216630   3.7496670  61.1166470  37.1834180   5.1605710  54.4354870
  37.1008850   6.1036470  54.5769860  36.8317240   5.0180620  53.5567220
  48.5454920   7.2190540  65.0972730  47.8136040   7.7277350  65.4462830
  48.1479260   6.4020520  64.7961510  44.9832310   3.8944740  63.5025220
  44.9868370   3.4534690  62.6529760  45.8783430   4.2162070  63.6097040
  40.8334690   3.7771230  62.4619430  40.4934740   4.2546460  63.2186480
  40.0712010   3.3236350  62.1020530  45.0452460   4.8956820  56.4931980
  45.1665280   4.8543300  57.4417800  44.6600970   5.7580970  56.3378710
  49.0080830   2.6724220  64.5095670  49.0253570   3.1232870  65.3537520
  48.7596410   1.7729860  64.7229110  44.0573960   7.2057960  55.8915280
  43.4890860   6.7576210  55.2651190  44.7662960   7.5650740  55.3580430
  45.2840280   7.9546520  65.2490630  45.6510410   7.4805090  65.9951970
  45.0945340   8.8288090  65.5898970  38.1480770   2.6990210  61.3784100
  37.8627690   2.3345880  62.2162720  38.0859630   1.9670670  60.7647240
  43.0739650   6.9955160  67.5674840  42.7696720   7.8747140  67.7925200
  44.0286110   7.0554950  67.6032280  41.6021440  11.2016150  58.1641690
  40.8283700  10.6613770  58.0040410  42.3316070  10.6822760  57.8259450
  52.3609420  10.1981510  63.9568080  53.0808540  10.6936800  63.5664190
  52.1591240   9.5199400  63.3121950  50.5367750   5.9639120  56.3959630
  51.4247370   6.2756350  56.2210970  50.5072840   5.0911370  56.0040210
  41.6458840  10.8696530  61.8020500  42.1637510  10.0664790  61.7477390
  41.1942860  10.8075670  62.6437330  46.5328340  12.1362810  57.0747800
  46.8744040  12.8805040  56.5791120  45.7041050  12.4493930  57.4372630
  52.8082020   7.2750960  55.8639490  52.7245740   7.7065180  55.0135930
  53.5276210   7.7349310  56.2966310  53.8856160   9.7318480  68.9409460
  53.1604350  10.3247260  68.7438850  54.4131620   9.7242020  68.1422830
  53.8369270  14.1293220  58.5921620  53.1945430  13.4748840  58.8665340
  53.4499930  14.5348310  57.8162290  49.4155750  11.4578650  62.4393310
  49.7679570  10.8606780  61.7794680  48.5318080  11.1322880  62.6101560
  45.5019030  12.2176340  59.8463720  46.1890160  12.7645550  60.2271310
  44.7151450  12.7617070  59.8813330  37.6411430   7.8349160  55.3380800
  38.5106280   8.1173960  55.6216720  37.1501750   8.6485030  55.2229610
  44.8046240   9.2222370  59.4589080  45.2609020  10.0327620  59.6849270
  44.4534450   8.9045510  60.2907570  47.1078850  14.7328710  66.6881380
  47.7521070  14.9388090  67.3654800  47.4708290  13.9717110  66.2352230
  48.3810930  12.7361060  65.4058830  49.0233160  12.0354220  65.5191000
  48.9060280  13.5159500  65.2255720  52.2266650  13.0209680  55.1297970
  52.0004230  12.3040120  55.7222610  51.8362850  12.7722120  54.2919720
  38.0082680  17.0476540  55.9042430  38.3680320  17.6465880  55.2499700
  37.8675020  17.5936430  56.6777460  51.8082900  10.9381620  56.7912130
  51.5204600  11.3994310  57.5790010  52.6035070  10.4779390  57.0596350
  44.0251300  14.4307740  56.7216100  44.0161400  15.1637430  56.1060610
  43.1049660  14.1839320  56.8143060  39.6257940   9.6522630  57.4662860
  39.0185890  10.3921530  57.4758160  40.1007290   9.7421990  56.6401060
  49.1990730   3.8173450  67.1419750  49.5671550   2.9968660  67.4699320
  48.3388930   3.8775340  67.5575400  52.5652760   2.7730390  57.9507310
  51.9365920   2.8776060  57.2365540  52.0704680   2.9927170  58.7401190
  47.0110900  14.4935980  55.3841290  47.1122880  14.2899970  54.4543270
  46.1112640  14.2394260  55.5889070  44.5336790   5.0516340  59.3665190
  43.8252940   5.5202680  59.8078800  44.8181270   4.3938350  60.0010380
  46.1592720   6.4713040  67.3657720  46.6577970   6.9458860  68.0309570
  46.3015670   5.5476560  67.5727750  48.5652220   1.7767000  60.8060980
  48.4420000   1.7953130  59.8570490  49.5136780   1.8245940  60.9259380
  45.6529010  17.0122300  60.0788960  45.9070510  16.9743690  59.1568330
  44.7041490  16.8855630  60.0717210  42.7371810   3.3601420  56.7415900
  43.5862340   3.7971570  56.6756090  42.3703080   3.6721680  57.5687960
  53.3659580   2.6881000  68.2086110  52.8633180   3.4286400  68.5479920
  54.1816240   3.0765000  67.8922900  51.6581590   7.9314180  61.6547470
  50.7171730   7.9464410  61.8295160  51.9725660   7.1450140  62.1007770
  41.6363230   9.6133780  55.2151430  42.4026500   9.5015140  55.7776860
  41.7137920   8.9171750  54.5628200  40.3309990   7.0458850  55.8984320
  40.4113580   6.0986360  56.0101720  41.2229740   7.3765730  56.0044980
  53.6607170  15.1023030  63.3301730  53.7854590  15.9254200  63.8025540
  54.5272730  14.8913760  62.9825880  41.1324700  17.1954240  63.0018860
  41.8687180  16.6469700  63.2727430  41.5165620  18.0610250  62.8624850
  38.0170180  13.2627810  58.8760370  37.0909960  13.5048950  58.8665780
  38.4826610  14.0902070  58.7545120  44.2427010  16.3684550  54.8244430
  45.0355620  16.6573380  54.3726220  43.7231360  15.9376720  54.1456910
  53.2957180  15.5954680  56.2481170  53.0098690  15.1819820  55.4335350
  53.0976730  16.5242390  56.1281690  44.7604410  11.5887960  54.6886780
  44.6555050  10.9740310  55.4148160  44.5928630  11.0653850  53.9049790
  48.0007140  10.6507990  55.2928770  47.4517240  11.0977290  55.9371510
  48.6226400  10.1457240  55.8166440  43.6682260   9.6098910  57.1894070
  44.0898680   9.4438780  58.0325460  43.7933100   8.7999140  56.6949210
  46.1809900   8.6336520  54.4371170  46.7015560   7.9185540  54.0712320
  46.8278300   9.2722390  54.7371680  45.4902970  10.0085400  67.7302170
  45.9091080  10.8518130  67.5578410  44.5711600  10.1457440  67.5008950
  50.1654770   8.2938770  67.6902520  49.6389990   8.8181390  67.0867660
  50.5086110   8.9266160  68.3212250  42.5641160   5.6832140  54.1352230
  42.3630220   4.8199500  54.4965570  42.3933210   5.5965500  53.1973830
  43.3410390  16.3138410  68.8459900  42.8031480  17.0384470  68.5268600
  43.5944350  15.8368750  68.0557240  41.3623960   2.7832760  54.1230110
  41.6649860   2.7900190  53.2149260  42.1018550   2.4330620  54.6197770
  46.7457930  16.7148130  56.7272910  47.6408720  17.0533100  56.7491670
  46.7775560  15.9927540  56.0997190  40.3854090  12.0875180  54.9559910
  40.8228960  12.6304850  55.6117490  40.8701820  11.2622130  54.9656250
  37.5999890  14.8764210  62.4080170  37.9302900  14.0085270  62.1758810
  38.0290890  15.0822730  63.2385130  42.1961810  13.2073220  60.0682140
  41.8957350  13.0838190  60.9686050  42.0899300  12.3481810  59.6597870
  38.0890100  15.7434800  65.1461800  37.6521090  15.9235600  65.9785950
  38.6567780  16.5009420  65.0043520  54.9653730  12.9869620  54.7708820
  54.1346690  13.0546270  55.2416050  55.1425560  13.8773740  54.4675680
  54.4210190   9.7317100  57.2743020  55.1829100  10.3013750  57.3802710
  54.4364560   9.1644300  58.0451330  37.9214530   8.2555030  61.5050680
  37.2663370   7.9866670  60.8610380  38.7592480   8.1459510  61.0552660
  55.4270160  10.5867200  62.1184950  55.7978990   9.8034520  61.7120920
  56.0672090  11.2756300  61.9402250  52.4103920  11.9703780  67.5315270
  51.5963760  12.4000940  67.7941060  52.8178120  12.5822190  66.9184320
  54.4729360  10.0251470  54.4315540  54.7478200  10.9330350  54.3034760
  54.2840100   9.9614000  55.3677530  50.8704970   3.0496320  55.7269170
  51.2889850   2.8627300  54.8865830  50.5641030   2.1975370  56.0372100
  54.3694700   7.9620460  59.4244970  53.9938300   7.1948390  58.9926260
  53.6397820   8.3443160  59.9119900  38.9590460   8.6407600  66.0454020
  39.3263500   8.5535000  66.9250040  38.3901280   7.8774150  65.9460880
  53.7594320   7.1091980  69.0584490  53.5280410   6.8804730  68.1582440
  54.0198870   8.0291530  69.0129380  37.1352610   5.4653960  57.4476010
  36.2316690   5.7284160  57.2727670  37.6193230   5.7365130  56.6675970
  53.6445660   6.1877950  62.7252210  54.1683140   5.6940600  62.0942380
  54.2305080   6.3228310  63.4699780  53.8235380   6.2717820  66.2471760
  52.8738090   6.2381360  66.3616750  54.0048390   7.1817930  66.0121530
  39.6779820   4.5219500  55.3570390  40.3871520   4.1002720  54.8717670
  38.9619760   4.5894730  54.7253740  53.1345630   5.4451300  58.6644620
  53.6304750   5.2122170  59.4493500  52.9361700   4.6063140  58.2482260
  54.5632790   4.0812250  61.1982300  54.4532070   3.9268290  62.1364570
  55.3240380   3.5533190  60.9557710  55.4523060   1.9120170  54.4388440
  56.3772370   1.7801350  54.2306730  55.4298850   1.9912990  55.3924890
  55.5261550   2.6830830  57.0645150  54.7313050   2.6175950  57.5938060
  55.7304830   3.6181470  57.0530500  52.4679970  16.7222380  61.0583540
  53.0639040  16.4006950  60.3817960  52.7258120  16.2494200  61.8496810
  44.0748570  14.7099880  66.8083890  43.8339930  14.9774440  65.9214410
  45.0151210  14.8805610  66.8634750  55.3352730  16.7294260  67.6094530
  54.8411010  17.1263130  66.8921660  54.7266020  16.1043470  68.0031810
  40.2130570  16.1002540  68.3271950  39.6190890  15.9687240  69.0661990
  40.2054410  15.2640680  67.8614050  53.0192180  17.3717680  64.8881270
  52.5595150  18.1233490  64.5139290  52.3904640  16.6524150  64.8296070
  39.8442800  13.4660920  67.2779990  39.1176860  12.8466210  67.2105940
  39.9051950  13.8601530  66.4078070  43.4487900  15.6805920  64.0629400
  43.9652920  15.0693280  63.5377660  44.0985280  16.1834700  64.5540410
  46.1883400  16.5714410  64.8898380  46.4761210  16.3168710  64.0131390
  46.7006620  16.0191770  65.4803950  38.1272800  16.7835310  60.4876750
  37.9594840  16.1505990  61.1858640  37.2607310  16.9894710  60.1370940
  45.2914630   2.7291360  60.9810920  44.4789140   2.3548250  60.6406800
  45.7956270   1.9736440  61.2832110  39.7335500  15.4768540  57.9326890
  39.2083120  15.8576570  57.2288850  39.6580080  16.1019310  58.6536600
  54.4900820  17.0356080  59.2540830  54.6653010  16.3493820  58.6101750
  53.7922390  17.5603130  58.8617500  42.3328470  17.4250920  56.8076140
  43.0647290  17.1410200  56.2600030  42.5922140  17.1864200  57.6975520
  41.4943260  13.5415650  56.8122470  40.8652140  14.0100750  57.3608300
  41.6091090  12.6964870  57.2468660  48.9492980   7.5921310  42.9623670
  48.8687030   6.6775920  42.6915380  48.5357400   8.0888380  42.2563380
  47.0811020   9.3700330  44.8432940  46.3053120   8.8900770  45.1331510
  47.7323950   8.6905980  44.6689100  41.0976850   9.6820140  45.7208700
  40.2661730   9.4268850  46.1205210  41.7057830   9.7530910  46.4566620
  51.1018450  13.7760520  43.6232070  50.6399980  13.0047760  43.9519240
  51.9144000  13.8026590  44.1284520  41.0778110  13.7160230  45.9166720
  41.3806150  12.8257970  45.7376940  41.8221700  14.2730450  45.6888970
  39.5068800   4.6422030  39.5051090  38.6185500   4.9838000  39.4030970
  39.7909990   4.4422350  38.6131920  37.4701810   7.2427680  45.3890790
  38.0417920   6.4749880  45.3894430  37.4703350   7.5416440  44.4797400
  47.3281760  16.0618530  43.2436060  46.7093200  16.5176030  42.6730500
  48.1833540  16.2169990  42.8425760  46.5220010  12.0457520  44.8503100
  46.4528290  11.1047460  44.6892230  47.2839870  12.1358930  45.4225670
  38.7126680   2.6512040  47.1759720  38.5329520   1.7537790  47.4562480
  38.3106760   3.1983910  47.8506670  47.5525180   4.8527900  45.0772030
  47.9290000   3.9799780  44.9645700  47.4544690   5.1886600  44.1862470
  41.6830190   3.2253530  40.5389470  41.7896940   4.1257260  40.8458230
  40.7722550   3.1771500  40.2484120  51.3349300   2.3478340  42.0100370
  52.1558920   1.8574910  42.0525850  51.3683380   2.9376000  42.7632210
  39.3313350   5.1472540  45.7842060  40.0123460   5.4110910  46.4029460
  39.0161400   4.3073410  46.1180070  43.5237920   6.1939900  44.8714650
  44.0316140   6.6920870  45.5119670  44.0551160   5.4175100  44.6954010
  55.6248850   4.3645090  48.5744000  54.9201020   4.7526800  48.0559110
  55.8906770   5.0595380  49.1764930  48.1945110  10.9457770  40.6367970
  47.5762380  11.4107220  40.0730690  48.7068360  11.6385250  41.0537480
  43.0576870  10.4733640  47.3151570  42.7246250  11.1002560  47.9572640
  43.2343550  10.9995520  46.5353240  51.5710780   4.2878720  44.7827910
  50.8666350   4.5763610  45.3631020  51.9322940   5.0978830  44.4227470
  41.4889350   2.5448420  47.1448520  41.8306160   3.3890470  46.8502390
  40.5505160   2.6932160  47.2613860  42.2695970  12.4414440  49.1300750
  42.8869970  13.1165520  48.8485200  41.4089090  12.8502420  49.0388250
  37.5628310  11.6314300  38.0107600  37.1856290  12.1201400  37.2792500
  37.8201380  12.3039580  38.6414130  53.1873560  13.9053850  47.0455390
  52.5037080  14.5752960  47.0372060  53.7267850  14.1034500  46.2800250
  54.6397700   3.7333510  45.1737120  53.6922610   3.7672490  45.3052550
  54.9647690   4.5472460  45.5586480  50.7232300  15.7497980  45.7600570
  50.7359460  15.3460270  44.8922830  50.1707520  16.5245270  45.6562000
  52.0177720  12.4714200  40.8490740  51.9074050  11.5288530  40.9740160
  52.0145970  12.8329840  41.7353500  50.1217740  10.6527820  47.0883180
  50.5386530  10.4387930  46.2536640  50.8457560  10.9100610  47.6591800
  47.5598000   8.0979520  40.2053230  46.6327280   8.0316900  40.4341700
  47.7122820   9.0359650  40.0908470  47.5467080   4.3696520  37.2020390
  46.6070750   4.5310480  37.2872850  47.8650340   5.0882200  36.6556380
  54.0679840   9.0515040  47.1799420  53.2398470   9.1208130  46.7049550
  54.6630320   9.6369350  46.7115250  51.5895290   9.6599820  40.7088480
  50.9707710   9.3219370  40.0614780  51.5719740   9.0159580  41.4167670
  51.0321850   5.8384360  48.1254290  50.6193030   6.6638070  48.3794280
  50.2997800   5.2529400  47.9330650  43.1654640   8.6244260  42.9872960
  42.7611640   7.9121510  42.4918860  43.2517760   8.2797500  43.8761000
  43.6336340  12.3111820  45.1512170  43.3364630  11.7057290  44.4719950
  44.5836160  12.3489130  45.0401530  41.8783260   5.3987470  46.7672000
  42.4297850   5.5082810  45.9925250  42.3926770   5.7725070  47.4827230
  51.7221950  15.8843690  48.8135270  51.2452510  16.6915880  48.6207880
  51.0383740  15.2322020  48.9661480  42.7254770  12.0493510  51.8019970
  41.8283300  12.2733480  52.0493370  42.7507640  12.1728450  50.8531370
  49.7659990   8.8986630  37.7161230  50.2053270   8.0609060  37.5699050
  50.4788410   9.5316030  37.8025370  41.5525990   8.9206830  50.3777340
  41.4133760   9.7929630  50.7464740  40.6707350   8.5779640  50.2325280
  47.8755370  13.8382700  41.6842470  48.3151280  14.5807030  41.2697860
  47.8142260  14.0809270  42.6081430  43.3506340  14.8628530  52.5862490
  43.3221770  15.2671480  51.7190920  43.1871310  13.9338890  52.4234090
  39.8659270   7.5189240  40.4879610  39.7456870   8.2451330  39.8760880
  39.5560160   6.7492150  40.0107520  55.3021160  15.6455630  53.8826660
  55.7780880  16.1238520  54.5615740  55.9228320  15.5773120  53.1572160
  37.5044640  10.6904380  46.2948250  37.5825060  10.8253150  45.3503970
  38.1186320   9.9820270  46.4876370  38.7492270  12.3904570  42.7054430
  38.3420350  12.5319160  41.8508030  39.6405280  12.1064730  42.5025640
  54.7054410  12.8368480  51.0426670  54.8317470  12.5980360  50.1243850
  54.7475790  12.0053020  51.5148750  48.5671150  16.5396480  49.6121480
  49.0815820  16.4504490  50.4143910  47.7240230  16.8856180  49.9049390
  50.5425550  16.8251820  39.0405480  50.3826690  16.5354760  39.9387310
  50.3772260  16.0491950  38.5050710  43.0213930  16.6050350  40.8177100
  42.8456410  15.6885890  40.6044900  42.1669670  16.9637640  41.0574900
  50.2451680  14.3339380  37.6003480  49.5516840  14.3316670  36.9405760
  50.9874540  13.9098700  37.1697650  49.8101610  15.9602090  41.6751970
  50.2658560  15.1791470  41.9890590  50.1494130  16.6708910  42.2193150
  54.5578420   4.8900940  52.0076410  53.9422690   5.3980610  51.4791870
  54.2374840   3.9899270  51.9502350  37.5604160  11.7318550  48.8342710
  37.7235200  11.2623910  48.0162080  38.0256610  11.2242110  49.4991550
  46.6192740   3.7292830  49.4738600  46.1572110   3.9375850  50.2858540
  46.2170850   2.9152180  49.1709270  51.6197250   4.9501780  50.6035260
  50.7690840   4.6507530  50.9244330  51.4599040   5.1943790  49.6919080
  48.7146960   6.4503530  52.7034050  49.0400370   5.6167280  52.3636280
  49.5027290   6.9732050  52.8512380  42.1237150   5.9857880  41.5984530
  41.8978070   5.7695050  42.5031150  41.3429680   6.4186340  41.2530500
  49.3534910   5.9921250  40.1975180  48.7543800   6.7157050  40.0138800
  49.9014520   5.9298030  39.4151630  44.5636360   6.8843460  52.2644800
  44.4679960   5.9438190  52.1145200  45.4068340   7.1058530  51.8692870
  47.9599780   4.6284790  42.2278460  48.3529350   4.9456990  41.4147150
  48.3216630   3.7496670  42.3422980  39.6946900   3.2957130  50.4178580
  39.3010290   4.1432340  50.6251360  39.0065300   2.6583500  50.6087220
  46.2691950   3.3792100  53.4875320  45.5790270   3.1864300  54.1221410
  47.0124250   3.6626740  54.0199620  37.1834180   5.1605710  35.6611380
  37.1008850   6.1036470  35.8026370  36.8317240   5.0180620  34.7823730
  48.5454920   7.2190540  46.3229240  47.8136040   7.7277350  46.6719340
  48.1479260   6.4020520  46.0218020  44.9832310   3.8944740  44.7281730
  44.9868370   3.4534690  43.8786270  45.8783430   4.2162070  44.8353550
  40.8334690   3.7771230  43.6875940  40.4934740   4.2546460  44.4442990
  40.0712010   3.3236350  43.3277040  45.0452460   4.8956820  37.7188490
  45.1665280   4.8543300  38.6674310  44.6600970   5.7580970  37.5635220
  49.0080830   2.6724220  45.7352180  49.0253570   3.1232870  46.5794030
  48.7596410   1.7729860  45.9485620  44.0573960   7.2057960  37.1171790
  43.4890860   6.7576210  36.4907700  44.7662960   7.5650740  36.5836940
  39.1343140  11.1069980  50.9938520  38.7497930  10.4663650  51.5921480
  39.4455330  11.8106100  51.5633250  45.2840280   7.9546520  46.4747140
  45.6510410   7.4805090  47.2208480  45.0945340   8.8288090  46.8155480
  38.1480770   2.6990210  42.6040610  37.8627690   2.3345880  43.4419230
  38.0859630   1.9670670  41.9903750  43.0739650   6.9955160  48.7931350
  42.7696720   7.8747140  49.0181710  44.0286110   7.0554950  48.8288790
  41.6021440  11.2016150  39.3898200  40.8283700  10.6613770  39.2296920
  42.3316070  10.6822760  39.0515960  52.3609420  10.1981510  45.1824590
  53.0808540  10.6936800  44.7920700  52.1591240   9.5199400  44.5378460
  47.7428220  10.2690570  51.0693590  47.6765530   9.3486240  50.8151180
  47.1133360  10.3666010  51.7838230  50.5367750   5.9639120  37.6216140
  51.4247370   6.2756350  37.4467480  50.5072840   5.0911370  37.2296720
  41.6458840  10.8696530  43.0277010  42.1637510  10.0664790  42.9733900
  41.1942860  10.8075670  43.8693840  46.5328340  12.1362810  38.3004310
  46.8744040  12.8805040  37.8047630  45.7041050  12.4493930  38.6629140
  39.1303380   7.8357900  49.9402710  38.7718320   8.5011750  50.5276050
  38.8357940   7.0041450  50.3115330  42.3316500   8.2942140  52.8242260
  42.0316640   8.4399320  51.9270080  43.1027740   7.7347430  52.7315650
  47.6744950  13.0911140  50.8197390  47.6889490  12.1592100  50.6016300
  46.9670050  13.1770900  51.4587160  52.8082020   7.2750960  37.0896000
  52.7245740   7.7065180  36.2392440  53.5276210   7.7349310  37.5222820
  53.8856160   9.7318480  50.1665970  53.1604350  10.3247260  49.9695360
  54.4131620   9.7242020  49.3679340  53.8369270  14.1293220  39.8178130
  53.1945430  13.4748840  40.0921850  53.4499930  14.5348310  39.0418800
  49.4155750  11.4578650  43.6649820  49.7679570  10.8606780  43.0051190
  48.5318080  11.1322880  43.8358070  45.5019030  12.2176340  41.0720230
  46.1890160  12.7645550  41.4527820  44.7151450  12.7617070  41.1069840
  37.6411430   7.8349160  36.5637310  38.5106280   8.1173960  36.8473230
  37.1501750   8.6485030  36.4486120  44.8046240   9.2222370  40.6845590
  45.2609020  10.0327620  40.9105780  44.4534450   8.9045510  41.5164080
  47.1078850  14.7328710  47.9137890  47.7521070  14.9388090  48.5911310
  47.4708290  13.9717110  47.4608740  48.3810930  12.7361060  46.6315340
  49.0233160  12.0354220  46.7447510  48.9060280  13.5159500  46.4512230
  52.2266650  13.0209680  36.3554480  52.0004230  12.3040120  36.9479120
  51.8362850  12.7722120  35.5176230  50.1548550  13.5355960  49.8351400
  50.4904790  14.1222650  50.5129320  49.2348890  13.4048670  50.0649190
  38.0082680  17.0476540  37.1298940  38.3680320  17.6465880  36.4756210
  37.8675020  17.5936430  37.9033970  51.8082900  10.9381620  38.0168640
  51.5204600  11.3994310  38.8046520  52.6035070  10.4779390  38.2852860
  37.9924540  15.3131400  51.6041340  38.1015660  14.3726140  51.4636730
  37.3405100  15.5786150  50.9555070  45.9837130  13.5847290  53.0039460
  45.6634000  12.8656530  53.5485150  45.3095490  14.2602360  53.0775520
  44.0251300  14.4307740  37.9472610  44.0161400  15.1637430  37.3317120
  43.1049660  14.1839320  38.0399570  39.6257940   9.6522630  38.6919370
  39.0185890  10.3921530  38.7014670  40.1007290   9.7421990  37.8657570
  49.1990730   3.8173450  48.3676260  49.5671550   2.9968660  48.6955830
  48.3388930   3.8775340  48.7831910  52.5652760   2.7730390  39.1763820
  51.9365920   2.8776060  38.4622050  52.0704680   2.9927170  39.9657700
  47.0110900  14.4935980  36.6097800  47.1122880  14.2899970  35.6799780
  46.1112640  14.2394260  36.8145580  44.5336790   5.0516340  40.5921700
  43.8252940   5.5202680  41.0335310  44.8181270   4.3938350  41.2266890
  46.1592720   6.4713040  48.5914230  46.6577970   6.9458860  49.2566080
  46.3015670   5.5476560  48.7984260  48.5652220   1.7767000  42.0317490
  48.4420000   1.7953130  41.0827000  49.5136780   1.8245940  42.1515890
  45.6529010  17.0122300  41.3045470  45.9070510  16.9743690  40.3824840
  44.7041490  16.8855630  41.2973720  42.7371810   3.3601420  37.9672410
  43.5862340   3.7971570  37.9012600  42.3703080   3.6721680  38.7944470
  53.3659580   2.6881000  49.4342620  52.8633180   3.4286400  49.7736430
  54.1816240   3.0765000  49.1179410  51.6581590   7.9314180  42.8803980
  50.7171730   7.9464410  43.0551670  51.9725660   7.1450140  43.3264280
  41.6363230   9.6133780  36.4407940  42.4026500   9.5015140  37.0033370
  41.7137920   8.9171750  35.7884710  40.3309990   7.0458850  37.1240830
  40.4113580   6.0986360  37.2358230  41.2229740   7.3765730  37.2301490
  53.6607170  15.1023030  44.5558240  53.7854590  15.9254200  45.0282050
  54.5272730  14.8913760  44.2082390  41.1324700  17.1954240  44.2275370
  41.8687180  16.6469700  44.4983940  41.5165620  18.0610250  44.0881360
  38.0170180  13.2627810  40.1016880  37.0909960  13.5048950  40.0922290
  38.4826610  14.0902070  39.9801630  40.1382980  16.3800310  53.4160950
  40.9395710  16.7012360  53.8296350  39.6234800  16.0195890  54.1380860
  44.2427010  16.3684550  36.0500940  45.0355620  16.6573380  35.5982730
  43.7231360  15.9376720  35.3713420  48.9747610  12.4880180  53.3636360
  48.3685770  12.5111780  52.6232110  48.6701720  11.7563220  53.9003610
  50.4047980  16.2160470  51.9745770  51.3569730  16.1318490  51.9246010
  50.2576200  16.8802180  52.6479560  53.2957180  15.5954680  37.4737680
  53.0098690  15.1819820  36.6591860  53.0976730  16.5242390  37.3538200
  37.8580790   8.8673770  52.3597000  38.3619810   8.2881050  52.9313230
  37.1188210   9.1514000  52.8973370  44.7604410  11.5887960  35.9143290
  44.6555050  10.9740310  36.6404670  44.5928630  11.0653850  35.1306300
  44.9118730  10.2744760  51.8932520  44.1464400  10.8429760  51.8087190
  45.0934690   9.9820970  51.0000750  48.0007140  10.6507990  36.5185280
  47.4517240  11.0977290  37.1628020  48.6226400  10.1457240  37.0422950
  52.0542080  12.0050090  52.4507540  52.7951550  12.3425850  51.9475000
  51.2914760  12.1742150  51.8977310  39.8903870   7.0103360  53.2547070
  39.9309210   6.7117230  54.1632300  40.7449370   7.4110970  53.0954590
  43.6682260   9.6098910  38.4150580  44.0898680   9.4438780  39.2581970
  43.7933100   8.7999140  37.9205720  41.8309680   5.5895460  51.2221560
  41.3006140   5.0986410  50.5944900  42.4997750   6.0179660  50.6879490
  46.1809900   8.6336520  35.6627680  46.7015560   7.9185540  35.2968830
  46.8278300   9.2722390  35.9628190  50.7287740  10.0564920  50.9862750
  51.1428760  10.2110000  51.8353170  49.7938740  10.1820140  51.1488530
  51.2009910   7.3961080  52.9901900  51.7830680   6.6413400  52.9022380
  51.3771680   7.9268520  52.2133380  42.3181980   2.5557830  51.3018850
  42.2238850   1.9378580  50.5769720  41.7379370   3.2824120  51.0748760
  45.4902970  10.0085400  48.9558680  45.9091080  10.8518130  48.7834920
  44.5711600  10.1457440  48.7265460  47.8266870   7.7401580  50.3396520
  47.9463080   7.1442720  51.0791360  48.6860870   7.7771270  49.9197820
  50.1654770   8.2938770  48.9159030  49.6389990   8.8181390  48.3124170
  50.5086110   8.9266160  49.5468760  42.5641160   5.6832140  35.3608740
  42.3630220   4.8199500  35.7222080  42.3933210   5.5965500  34.4230340
  43.3410390  16.3138410  50.0716410  42.8031480  17.0384470  49.7525110
  43.5944350  15.8368750  49.2813750  44.5935640   4.2822930  51.5972340
  45.1835330   3.9738780  52.2850160  43.7755880   3.8102680  51.7532240
  49.4129070   3.8988740  51.8305360  48.7244590   3.2370280  51.7655350
  50.1335090   3.4527010  52.2753820  41.3623960   2.7832760  35.3486620
  41.6649860   2.7900190  34.4405770  42.1018550   2.4330620  35.8454280
  46.1972600  17.5489620  50.3303060  46.1231300  18.4524760  50.6375430
  45.2951440  17.2301520  50.3025130  46.7457930  16.7148130  37.9529420
  47.6408720  17.0533100  37.9748180  46.7775560  15.9927540  37.3253700
  40.3854090  12.0875180  36.1816420  40.8228960  12.6304850  36.8374000
  40.8701820  11.2622130  36.1912760  37.5999890  14.8764210  43.6336680
  37.9302900  14.0085270  43.4015320  38.0290890  15.0822730  44.4641640
  42.1961810  13.2073220  41.2938650  41.8957350  13.0838190  42.1942560
  42.0899300  12.3481810  40.8854380  38.0890100  15.7434800  46.3718310
  37.6521090  15.9235600  47.2042460  38.6567780  16.5009420  46.2300030
  53.7252280  15.2451800  50.6595620  53.1254270  15.3044360  49.9159540
  53.8546180  14.3056780  50.7892470  54.9653730  12.9869620  35.9965330
  54.1346690  13.0546270  36.4672560  55.1425560  13.8773740  35.6932190
  54.4210190   9.7317100  38.4999530  55.1829100  10.3013750  38.6059220
  54.4364560   9.1644300  39.2707840  37.9214530   8.2555030  42.7307190
  37.2663370   7.9866670  42.0866890  38.7592480   8.1459510  42.2809170
  55.4270160  10.5867200  43.3441460  55.7978990   9.8034520  42.9377430
  56.0672090  11.2756300  43.1658760  52.4103920  11.9703780  48.7571780
  51.5963760  12.4000940  49.0197570  52.8178120  12.5822190  48.1440830
  54.4729360  10.0251470  35.6572050  54.7478200  10.9330350  35.5291270
  54.2840100   9.9614000  36.5934040  50.8704970   3.0496320  36.9525680
  51.2889850   2.8627300  36.1122340  50.5641030   2.1975370  37.2628610
  54.3694700   7.9620460  40.6501480  53.9938300   7.1948390  40.2182770
  53.6397820   8.3443160  41.1376410  38.9590460   8.6407600  47.2710530
  39.3263500   8.5535000  48.1506550  38.3901280   7.8774150  47.1717390
  53.7594320   7.1091980  50.2841000  53.5280410   6.8804730  49.3838950
  54.0198870   8.0291530  50.2385890  38.5106460   5.5516690  51.1768950
  37.6162510   5.5183450  51.5162660  39.0504010   5.7503480  51.9420200
  52.1982390   2.3348410  53.0620700  53.0752570   2.3431810  53.4454700
  52.2103230   1.5979250  52.4513050  37.1352610   5.4653960  38.6732520
  36.2316690   5.7284160  38.4984180  37.6193230   5.7365130  37.8932480
  53.6445660   6.1877950  43.9508720  54.1683140   5.6940600  43.3198890
  54.2305080   6.3228310  44.6956290  53.8235380   6.2717820  47.4728270
  52.8738090   6.2381360  47.5873260  54.0048390   7.1817930  47.2378040
  39.6779820   4.5219500  36.5826900  40.3871520   4.1002720  36.0974180
  38.9619760   4.5894730  35.9510250  53.1345630   5.4451300  39.8901130
  53.6304750   5.2122170  40.6750010  52.9361700   4.6063140  39.4738770
  54.5632790   4.0812250  42.4238810  54.4532070   3.9268290  43.3621080
  55.3240380   3.5533190  42.1814220  55.4523060   1.9120170  35.6644950
  56.3772370   1.7801350  35.4563240  55.4298850   1.9912990  36.6181400
  55.5261550   2.6830830  38.2901660  54.7313050   2.6175950  38.8194570
  55.7304830   3.6181470  38.2787010  52.4679970  16.7222380  42.2840050
  53.0639040  16.4006950  41.6074470  52.7258120  16.2494200  43.0753320
  40.3742540  13.1540290  52.4330680  40.3312170  12.7833200  53.3145140
  40.5053550  14.0917860  52.5732500  44.0748570  14.7099880  48.0340400
  43.8339930  14.9774440  47.1470920  45.0151210  14.8805610  48.0891260
  55.3352730  16.7294260  48.8351040  54.8411010  17.1263130  48.1178170
  54.7266020  16.1043470  49.2288320  40.2130570  16.1002540  49.5528460
  39.6190890  15.9687240  50.2918500  40.2054410  15.2640680  49.0870560
  53.0192180  17.3717680  46.1137780  52.5595150  18.1233490  45.7395800
  52.3904640  16.6524150  46.0552580  39.8442800  13.4660920  48.5036500
  39.1176860  12.8466210  48.4362450  39.9051950  13.8601530  47.6334580
  43.4487900  15.6805920  45.2885910  43.9652920  15.0693280  44.7634170
  44.0985280  16.1834700  45.7796920  46.1883400  16.5714410  46.1154890
  46.4761210  16.3168710  45.2387900  46.7006620  16.0191770  46.7060460
  38.1272800  16.7835310  41.7133260  37.9594840  16.1505990  42.4115150
  37.2607310  16.9894710  41.3627450  45.2914630   2.7291360  42.2067430
  44.4789140   2.3548250  41.8663310  45.7956270   1.9736440  42.5088620
  39.7335500  15.4768540  39.1583400  39.2083120  15.8576570  38.4545360
  39.6580080  16.1019310  39.8793110  46.2555760  17.4930510  53.4823090
  47.1823070  17.2574780  53.5259050  46.2406190  18.3202510  53.0009120
  54.4900820  17.0356080  40.4797340  54.6653010  16.3493820  39.8358260
  53.7922390  17.5603130  40.0874010  42.3328470  17.4250920  38.0332650
  43.0647290  17.1410200  37.4856540  42.5922140  17.1864200  38.9232030
  41.4943260  13.5415650  38.0378980  40.8652140  14.0100750  38.5864810
  41.6091090  12.6964870  38.4725170  52.8233320  16.7200370  53.3064130
  53.6158640  16.2249600  53.0990090  53.1166470  17.3990510  53.9139740
  48.9492980   7.5921310  24.1880180  48.8687030   6.6775920  23.9171890
  48.5357400   8.0888380  23.4819890  47.0811020   9.3700330  26.0689450
  46.3053120   8.8900770  26.3588020  47.7323950   8.6905980  25.8945610
  41.0976850   9.6820140  26.9465210  40.2661730   9.4268850  27.3461720
  41.7057830   9.7530910  27.6823130  51.1018450  13.7760520  24.8488580
  50.6399980  13.0047760  25.1775750  51.9144000  13.8026590  25.3541030
  41.0778110  13.7160230  27.1423230  41.3806150  12.8257970  26.9633450
  41.8221700  14.2730450  26.9145480  39.5068800   4.6422030  20.7307600
  38.6185500   4.9838000  20.6287480  39.7909990   4.4422350  19.8388430
  37.4701810   7.2427680  26.6147300  38.0417920   6.4749880  26.6150940
  37.4703350   7.5416440  25.7053910  47.3281760  16.0618530  24.4692570
  46.7093200  16.5176030  23.8987010  48.1833540  16.2169990  24.0682270
  46.5220010  12.0457520  26.0759610  46.4528290  11.1047460  25.9148740
  47.2839870  12.1358930  26.6482180  38.7126680   2.6512040  28.4016230
  38.5329520   1.7537790  28.6818990  38.3106760   3.1983910  29.0763180
  47.5525180   4.8527900  26.3028540  47.9290000   3.9799780  26.1902210
  47.4544690   5.1886600  25.4118980  41.6830190   3.2253530  21.7645980
  41.7896940   4.1257260  22.0714740  40.7722550   3.1771500  21.4740630
  51.3349300   2.3478340  23.2356880  52.1558920   1.8574910  23.2782360
  51.3683380   2.9376000  23.9888720  39.3313350   5.1472540  27.0098570
  40.0123460   5.4110910  27.6285970  39.0161400   4.3073410  27.3436580
  43.5237920   6.1939900  26.0971160  44.0316140   6.6920870  26.7376180
  44.0551160   5.4175100  25.9210520  55.6248850   4.3645090  29.8000510
  54.9201020   4.7526800  29.2815620  55.8906770   5.0595380  30.4021440
  48.1945110  10.9457770  21.8624480  47.5762380  11.4107220  21.2987200
  48.7068360  11.6385250  22.2793990  43.0576870  10.4733640  28.5408080
  42.7246250  11.1002560  29.1829150  43.2343550  10.9995520  27.7609750
  51.5710780   4.2878720  26.0084420  50.8666350   4.5763610  26.5887530
  51.9322940   5.0978830  25.6483980  41.4889350   2.5448420  28.3705030
  41.8306160   3.3890470  28.0758900  40.5505160   2.6932160  28.4870370
  42.2695970  12.4414440  30.3557260  42.8869970  13.1165520  30.0741710
  41.4089090  12.8502420  30.2644760  37.5628310  11.6314300  19.2364110
  37.1856290  12.1201400  18.5049010  37.8201380  12.3039580  19.8670640
  53.1873560  13.9053850  28.2711900  52.5037080  14.5752960  28.2628570
  53.7267850  14.1034500  27.5056760  54.6397700   3.7333510  26.3993630
  53.6922610   3.7672490  26.5309060  54.9647690   4.5472460  26.7842990
  50.7232300  15.7497980  26.9857080  50.7359460  15.3460270  26.1179340
  50.1707520  16.5245270  26.8818510  52.0177720  12.4714200  22.0747250
  51.9074050  11.5288530  22.1996670  52.0145970  12.8329840  22.9610010
  50.1217740  10.6527820  28.3139690  50.5386530  10.4387930  27.4793150
  50.8457560  10.9100610  28.8848310  47.5598000   8.0979520  21.4309740
  46.6327280   8.0316900  21.6598210  47.7122820   9.0359650  21.3164980
  47.5467080   4.3696520  18.4276900  46.6070750   4.5310480  18.5129360
  47.8650340   5.0882200  17.8812890  54.0679840   9.0515040  28.4055930
  53.2398470   9.1208130  27.9306060  54.6630320   9.6369350  27.9371760
  51.5895290   9.6599820  21.9344990  50.9707710   9.3219370  21.2871290
  51.5719740   9.0159580  22.6424180  51.0321850   5.8384360  29.3510800
  50.6193030   6.6638070  29.6050790  50.2997800   5.2529400  29.1587160
  43.1654640   8.6244260  24.2129470  42.7611640   7.9121510  23.7175370
  43.2517760   8.2797500  25.1017510  43.6336340  12.3111820  26.3768680
  43.3364630  11.7057290  25.6976460  44.5836160  12.3489130  26.2658040
  41.8783260   5.3987470  27.9928510  42.4297850   5.5082810  27.2181760
  42.3926770   5.7725070  28.7083740  51.7221950  15.8843690  30.0391780
  51.2452510  16.6915880  29.8464390  51.0383740  15.2322020  30.1917990
  42.7254770  12.0493510  33.0276480  41.8283300  12.2733480  33.2749880
  42.7507640  12.1728450  32.0787880  49.7659990   8.8986630  18.9417740
  50.2053270   8.0609060  18.7955560  50.4788410   9.5316030  19.0281880
  41.5525990   8.9206830  31.6033850  41.4133760   9.7929630  31.9721250
  40.6707350   8.5779640  31.4581790  47.8755370  13.8382700  22.9098980
  48.3151280  14.5807030  22.4954370  47.8142260  14.0809270  23.8337940
  43.3506340  14.8628530  33.8119000  43.3221770  15.2671480  32.9447430
  43.1871310  13.9338890  33.6490600  39.8659270   7.5189240  21.7136120
  39.7456870   8.2451330  21.1017390  39.5560160   6.7492150  21.2364030
  55.3021160  15.6455630  35.1083170  55.7780880  16.1238520  35.7872250
  55.9228320  15.5773120  34.3828670  37.5044640  10.6904380  27.5204760
  37.5825060  10.8253150  26.5760480  38.1186320   9.9820270  27.7132880
  38.7492270  12.3904570  23.9310940  38.3420350  12.5319160  23.0764540
  39.6405280  12.1064730  23.7282150  54.7054410  12.8368480  32.2683180
  54.8317470  12.5980360  31.3500360  54.7475790  12.0053020  32.7405260
  48.5671150  16.5396480  30.8377990  49.0815820  16.4504490  31.6400420
  47.7240230  16.8856180  31.1305900  50.5425550  16.8251820  20.2661990
  50.3826690  16.5354760  21.1643820  50.3772260  16.0491950  19.7307220
  43.0213930  16.6050350  22.0433610  42.8456410  15.6885890  21.8301410
  42.1669670  16.9637640  22.2831410  50.2451680  14.3339380  18.8259990
  49.5516840  14.3316670  18.1662270  50.9874540  13.9098700  18.3954160
  49.8101610  15.9602090  22.9008480  50.2658560  15.1791470  23.2147100
  50.1494130  16.6708910  23.4449660  54.5578420   4.8900940  33.2332920
  53.9422690   5.3980610  32.7048380  54.2374840   3.9899270  33.1758860
  37.5604160  11.7318550  30.0599220  37.7235200  11.2623910  29.2418590
  38.0256610  11.2242110  30.7248060  46.6192740   3.7292830  30.6995110
  46.1572110   3.9375850  31.5115050  46.2170850   2.9152180  30.3965780
  51.6197250   4.9501780  31.8291770  50.7690840   4.6507530  32.1500840
  51.4599040   5.1943790  30.9175590  48.7146960   6.4503530  33.9290560
  49.0400370   5.6167280  33.5892790  49.5027290   6.9732050  34.0768890
  42.1237150   5.9857880  22.8241040  41.8978070   5.7695050  23.7287660
  41.3429680   6.4186340  22.4787010  49.3534910   5.9921250  21.4231690
  48.7543800   6.7157050  21.2395310  49.9014520   5.9298030  20.6408140
  44.5636360   6.8843460  33.4901310  44.4679960   5.9438190  33.3401710
  45.4068340   7.1058530  33.0949380  47.9599780   4.6284790  23.4534970
  48.3529350   4.9456990  22.6403660  48.3216630   3.7496670  23.5679490
  39.6946900   3.2957130  31.6435090  39.3010290   4.1432340  31.8507870
  39.0065300   2.6583500  31.8343730  46.2691950   3.3792100  34.7131830
  45.5790270   3.1864300  35.3477920  47.0124250   3.6626740  35.2456130
  37.1834180   5.1605710  16.8867890  37.1008850   6.1036470  17.0282880
  36.8317240   5.0180620  16.0080240  48.5454920   7.2190540  27.5485750
  47.8136040   7.7277350  27.8975850  48.1479260   6.4020520  27.2474530
  44.9832310   3.8944740  25.9538240  44.9868370   3.4534690  25.1042780
  45.8783430   4.2162070  26.0610060  40.8334690   3.7771230  24.9132450
  40.4934740   4.2546460  25.6699500  40.0712010   3.3236350  24.5533550
  45.0452460   4.8956820  18.9445000  45.1665280   4.8543300  19.8930820
  44.6600970   5.7580970  18.7891730  49.0080830   2.6724220  26.9608690
  49.0253570   3.1232870  27.8050540  48.7596410   1.7729860  27.1742130
  44.0573960   7.2057960  18.3428300  43.4890860   6.7576210  17.7164210
  44.7662960   7.5650740  17.8093450  39.1343140  11.1069980  32.2195030
  38.7497930  10.4663650  32.8177990  39.4455330  11.8106100  32.7889760
  45.2840280   7.9546520  27.7003650  45.6510410   7.4805090  28.4464990
  45.0945340   8.8288090  28.0411990  38.1480770   2.6990210  23.8297120
  37.8627690   2.3345880  24.6675740  38.0859630   1.9670670  23.2160260
  43.0739650   6.9955160  30.0187860  42.7696720   7.8747140  30.2438220
  44.0286110   7.0554950  30.0545300  41.6021440  11.2016150  20.6154710
  40.8283700  10.6613770  20.4553430  42.3316070  10.6822760  20.2772470
  52.3609420  10.1981510  26.4081100  53.0808540  10.6936800  26.0177210
  52.1591240   9.5199400  25.7634970  47.7428220  10.2690570  32.2950100
  47.6765530   9.3486240  32.0407690  47.1133360  10.3666010  33.0094740
  50.5367750   5.9639120  18.8472650  51.4247370   6.2756350  18.6723990
  50.5072840   5.0911370  18.4553230  41.6458840  10.8696530  24.2533520
  42.1637510  10.0664790  24.1990410  41.1942860  10.8075670  25.0950350
  46.5328340  12.1362810  19.5260820  46.8744040  12.8805040  19.0304140
  45.7041050  12.4493930  19.8885650  39.1303380   7.8357900  31.1659220
  38.7718320   8.5011750  31.7532560  38.8357940   7.0041450  31.5371840
  42.3316500   8.2942140  34.0498770  42.0316640   8.4399320  33.1526590
  43.1027740   7.7347430  33.9572160  47.6744950  13.0911140  32.0453900
  47.6889490  12.1592100  31.8272810  46.9670050  13.1770900  32.6843670
  52.8082020   7.2750960  18.3152510  52.7245740   7.7065180  17.4648950
  53.5276210   7.7349310  18.7479330  53.8856160   9.7318480  31.3922480
  53.1604350  10.3247260  31.1951870  54.4131620   9.7242020  30.5935850
  53.8369270  14.1293220  21.0434640  53.1945430  13.4748840  21.3178360
  53.4499930  14.5348310  20.2675310  49.4155750  11.4578650  24.8906330
  49.7679570  10.8606780  24.2307700  48.5318080  11.1322880  25.0614580
  45.5019030  12.2176340  22.2976740  46.1890160  12.7645550  22.6784330
  44.7151450  12.7617070  22.3326350  37.6411430   7.8349160  17.7893820
  38.5106280   8.1173960  18.0729740  37.1501750   8.6485030  17.6742630
  44.8046240   9.2222370  21.9102100  45.2609020  10.0327620  22.1362290
  44.4534450   8.9045510  22.7420590  47.1078850  14.7328710  29.1394400
  47.7521070  14.9388090  29.8167820  47.4708290  13.9717110  28.6865250
  48.3810930  12.7361060  27.8571850  49.0233160  12.0354220  27.9704020
  48.9060280  13.5159500  27.6768740  52.2266650  13.0209680  17.5810990
  52.0004230  12.3040120  18.1735630  51.8362850  12.7722120  16.7432740
  50.1548550  13.5355960  31.0607910  50.4904790  14.1222650  31.7385830
  49.2348890  13.4048670  31.2905700  38.0082680  17.0476540  18.3555450
  38.3680320  17.6465880  17.7012720  37.8675020  17.5936430  19.1290480
  51.8082900  10.9381620  19.2425150  51.5204600  11.3994310  20.0303030
  52.6035070  10.4779390  19.5109370  37.9924540  15.3131400  32.8297850
  38.1015660  14.3726140  32.6893240  37.3405100  15.5786150  32.1811580
  45.9837130  13.5847290  34.2295970  45.6634000  12.8656530  34.7741660
  45.3095490  14.2602360  34.3032030  44.0251300  14.4307740  19.1729120
  44.0161400  15.1637430  18.5573630  43.1049660  14.1839320  19.2656080
  39.6257940   9.6522630  19.9175880  39.0185890  10.3921530  19.9271180
  40.1007290   9.7421990  19.0914080  49.1990730   3.8173450  29.5932770
  49.5671550   2.9968660  29.9212340  48.3388930   3.8775340  30.0088420
  52.5652760   2.7730390  20.4020330  51.9365920   2.8776060  19.6878560
  52.0704680   2.9927170  21.1914210  47.0110900  14.4935980  17.8354310
  47.1122880  14.2899970  16.9056290  46.1112640  14.2394260  18.0402090
  44.5336790   5.0516340  21.8178210  43.8252940   5.5202680  22.2591820
  44.8181270   4.3938350  22.4523400  46.1592720   6.4713040  29.8170740
  46.6577970   6.9458860  30.4822590  46.3015670   5.5476560  30.0240770
  48.5652220   1.7767000  23.2574000  48.4420000   1.7953130  22.3083510
  49.5136780   1.8245940  23.3772400  45.6529010  17.0122300  22.5301980
  45.9070510  16.9743690  21.6081350  44.7041490  16.8855630  22.5230230
  42.7371810   3.3601420  19.1928920  43.5862340   3.7971570  19.1269110
  42.3703080   3.6721680  20.0200980  53.3659580   2.6881000  30.6599130
  52.8633180   3.4286400  30.9992940  54.1816240   3.0765000  30.3435920
  51.6581590   7.9314180  24.1060490  50.7171730   7.9464410  24.2808180
  51.9725660   7.1450140  24.5520790  41.6363230   9.6133780  17.6664450
  42.4026500   9.5015140  18.2289880  41.7137920   8.9171750  17.0141220
  40.3309990   7.0458850  18.3497340  40.4113580   6.0986360  18.4614740
  41.2229740   7.3765730  18.4558000  53.6607170  15.1023030  25.7814750
  53.7854590  15.9254200  26.2538560  54.5272730  14.8913760  25.4338900
  41.1324700  17.1954240  25.4531880  41.8687180  16.6469700  25.7240450
  41.5165620  18.0610250  25.3137870  38.0170180  13.2627810  21.3273390
  37.0909960  13.5048950  21.3178800  38.4826610  14.0902070  21.2058140
  40.1382980  16.3800310  34.6417460  40.9395710  16.7012360  35.0552860
  39.6234800  16.0195890  35.3637370  44.2427010  16.3684550  17.2757450
  45.0355620  16.6573380  16.8239240  43.7231360  15.9376720  16.5969930
  48.9747610  12.4880180  34.5892870  48.3685770  12.5111780  33.8488620
  48.6701720  11.7563220  35.1260120  50.4047980  16.2160470  33.2002280
  51.3569730  16.1318490  33.1502520  50.2576200  16.8802180  33.8736070
  53.2957180  15.5954680  18.6994190  53.0098690  15.1819820  17.8848370
  53.0976730  16.5242390  18.5794710  37.8580790   8.8673770  33.5853510
  38.3619810   8.2881050  34.1569740  37.1188210   9.1514000  34.1229880
  44.7604410  11.5887960  17.1399800  44.6555050  10.9740310  17.8661180
  44.5928630  11.0653850  16.3562810  44.9118730  10.2744760  33.1189030
  44.1464400  10.8429760  33.0343700  45.0934690   9.9820970  32.2257260
  48.0007140  10.6507990  17.7441790  47.4517240  11.0977290  18.3884530
  48.6226400  10.1457240  18.2679460  52.0542080  12.0050090  33.6764050
  52.7951550  12.3425850  33.1731510  51.2914760  12.1742150  33.1233820
  39.8903870   7.0103360  34.4803580  39.9309210   6.7117230  35.3888810
  40.7449370   7.4110970  34.3211100  43.6682260   9.6098910  19.6407090
  44.0898680   9.4438780  20.4838480  43.7933100   8.7999140  19.1462230
  41.8309680   5.5895460  32.4478070  41.3006140   5.0986410  31.8201410
  42.4997750   6.0179660  31.9136000  46.1809900   8.6336520  16.8884190
  46.7015560   7.9185540  16.5225340  46.8278300   9.2722390  17.1884700
  50.7287740  10.0564920  32.2119260  51.1428760  10.2110000  33.0609680
  49.7938740  10.1820140  32.3745040  51.2009910   7.3961080  34.2158410
  51.7830680   6.6413400  34.1278890  51.3771680   7.9268520  33.4389890
  42.3181980   2.5557830  32.5275360  42.2238850   1.9378580  31.8026230
  41.7379370   3.2824120  32.3005270  45.4902970  10.0085400  30.1815190
  45.9091080  10.8518130  30.0091430  44.5711600  10.1457440  29.9521970
  47.8266870   7.7401580  31.5653030  47.9463080   7.1442720  32.3047870
  48.6860870   7.7771270  31.1454330  50.1654770   8.2938770  30.1415540
  49.6389990   8.8181390  29.5380680  50.5086110   8.9266160  30.7725270
  42.5641160   5.6832140  16.5865250  42.3630220   4.8199500  16.9478590
  42.3933210   5.5965500  15.6486850  43.3410390  16.3138410  31.2972920
  42.8031480  17.0384470  30.9781620  43.5944350  15.8368750  30.5070260
  44.5935640   4.2822930  32.8228850  45.1835330   3.9738780  33.5106670
  43.7755880   3.8102680  32.9788750  49.4129070   3.8988740  33.0561870
  48.7244590   3.2370280  32.9911860  50.1335090   3.4527010  33.5010330
  41.3623960   2.7832760  16.5743130  41.6649860   2.7900190  15.6662280
  42.1018550   2.4330620  17.0710790  46.1972600  17.5489620  31.5559570
  46.1231300  18.4524760  31.8631940  45.2951440  17.2301520  31.5281640
  46.7457930  16.7148130  19.1785930  47.6408720  17.0533100  19.2004690
  46.7775560  15.9927540  18.5510210  40.3854090  12.0875180  17.4072930
  40.8228960  12.6304850  18.0630510  40.8701820  11.2622130  17.4169270
  37.5999890  14.8764210  24.8593190  37.9302900  14.0085270  24.6271830
  38.0290890  15.0822730  25.6898150  42.1961810  13.2073220  22.5195160
  41.8957350  13.0838190  23.4199070  42.0899300  12.3481810  22.1110890
  38.0890100  15.7434800  27.5974820  37.6521090  15.9235600  28.4298970
  38.6567780  16.5009420  27.4556540  53.7252280  15.2451800  31.8852130
  53.1254270  15.3044360  31.1416050  53.8546180  14.3056780  32.0148980
  54.9653730  12.9869620  17.2221840  54.1346690  13.0546270  17.6929070
  55.1425560  13.8773740  16.9188700  54.4210190   9.7317100  19.7256040
  55.1829100  10.3013750  19.8315730  54.4364560   9.1644300  20.4964350
  37.9214530   8.2555030  23.9563700  37.2663370   7.9866670  23.3123400
  38.7592480   8.1459510  23.5065680  55.4270160  10.5867200  24.5697970
  55.7978990   9.8034520  24.1633940  56.0672090  11.2756300  24.3915270
  52.4103920  11.9703780  29.9828290  51.5963760  12.4000940  30.2454080
  52.8178120  12.5822190  29.3697340  54.4729360  10.0251470  16.8828560
  54.7478200  10.9330350  16.7547780  54.2840100   9.9614000  17.8190550
  50.8704970   3.0496320  18.1782190  51.2889850   2.8627300  17.3378850
  50.5641030   2.1975370  18.4885120  54.3694700   7.9620460  21.8757990
  53.9938300   7.1948390  21.4439280  53.6397820   8.3443160  22.3632920
  38.9590460   8.6407600  28.4967040  39.3263500   8.5535000  29.3763060
  38.3901280   7.8774150  28.3973900  53.7594320   7.1091980  31.5097510
  53.5280410   6.8804730  30.6095460  54.0198870   8.0291530  31.4642400
  38.5106460   5.5516690  32.4025460  37.6162510   5.5183450  32.7419170
  39.0504010   5.7503480  33.1676710  52.1982390   2.3348410  34.2877210
  53.0752570   2.3431810  34.6711210  52.2103230   1.5979250  33.6769560
  37.1352610   5.4653960  19.8989030  36.2316690   5.7284160  19.7240690
  37.6193230   5.7365130  19.1188990  53.6445660   6.1877950  25.1765230
  54.1683140   5.6940600  24.5455400  54.2305080   6.3228310  25.9212800
  53.8235380   6.2717820  28.6984780  52.8738090   6.2381360  28.8129770
  54.0048390   7.1817930  28.4634550  39.6779820   4.5219500  17.8083410
  40.3871520   4.1002720  17.3230690  38.9619760   4.5894730  17.1766760
  53.1345630   5.4451300  21.1157640  53.6304750   5.2122170  21.9006520
  52.9361700   4.6063140  20.6995280  54.5632790   4.0812250  23.6495320
  54.4532070   3.9268290  24.5877590  55.3240380   3.5533190  23.4070730
  55.4523060   1.9120170  16.8901460  56.3772370   1.7801350  16.6819750
  55.4298850   1.9912990  17.8437910  55.5261550   2.6830830  19.5158170
  54.7313050   2.6175950  20.0451080  55.7304830   3.6181470  19.5043520
  52.4679970  16.7222380  23.5096560  53.0639040  16.4006950  22.8330980
  52.7258120  16.2494200  24.3009830  40.3742540  13.1540290  33.6587190
  40.3312170  12.7833200  34.5401650  40.5053550  14.0917860  33.7989010
  44.0748570  14.7099880  29.2596910  43.8339930  14.9774440  28.3727430
  45.0151210  14.8805610  29.3147770  55.3352730  16.7294260  30.0607550
  54.8411010  17.1263130  29.3434680  54.7266020  16.1043470  30.4544830
  40.2130570  16.1002540  30.7784970  39.6190890  15.9687240  31.5175010
  40.2054410  15.2640680  30.3127070  53.0192180  17.3717680  27.3394290
  52.5595150  18.1233490  26.9652310  52.3904640  16.6524150  27.2809090
  39.8442800  13.4660920  29.7293010  39.1176860  12.8466210  29.6618960
  39.9051950  13.8601530  28.8591090  43.4487900  15.6805920  26.5142420
  43.9652920  15.0693280  25.9890680  44.0985280  16.1834700  27.0053430
  46.1883400  16.5714410  27.3411400  46.4761210  16.3168710  26.4644410
  46.7006620  16.0191770  27.9316970  38.1272800  16.7835310  22.9389770
  37.9594840  16.1505990  23.6371660  37.2607310  16.9894710  22.5883960
  45.2914630   2.7291360  23.4323940  44.4789140   2.3548250  23.0919820
  45.7956270   1.9736440  23.7345130  39.7335500  15.4768540  20.3839910
  39.2083120  15.8576570  19.6801870  39.6580080  16.1019310  21.1049620
  46.2555760  17.4930510  34.7079600  47.1823070  17.2574780  34.7515560
  46.2406190  18.3202510  34.2265630  54.4900820  17.0356080  21.7053850
  54.6653010  16.3493820  21.0614770  53.7922390  17.5603130  21.3130520
  42.3328470  17.4250920  19.2589160  43.0647290  17.1410200  18.7113050
  42.5922140  17.1864200  20.1488540  41.4943260  13.5415650  19.2635490
  40.8652140  14.0100750  19.8121320  41.6091090  12.6964870  19.6981680
  52.8233320  16.7200370  34.5320640  53.6158640  16.2249600  34.3246600
  53.1166470  17.3990510  35.1396250  48.9492980   7.5921310   5.4136690
  48.8687030   6.6775920   5.1428400  48.5357400   8.0888380   4.7076400
  47.0811020   9.3700330   7.2945960  46.3053120   8.8900770   7.5844530
  47.7323950   8.6905980   7.1202120  41.0976850   9.6820140   8.1721720
  40.2661730   9.4268850   8.5718230  41.7057830   9.7530910   8.9079640
  51.1018450  13.7760520   6.0745090  50.6399980  13.0047760   6.4032260
  51.9144000  13.8026590   6.5797540  41.0778110  13.7160230   8.3679740
  41.3806150  12.8257970   8.1889960  41.8221700  14.2730450   8.1401990
  37.4701810   7.2427680   7.8403810  38.0417920   6.4749880   7.8407450
  37.4703350   7.5416440   6.9310420  47.3281760  16.0618530   5.6949080
  46.7093200  16.5176030   5.1243520  48.1833540  16.2169990   5.2938780
  46.5220010  12.0457520   7.3016120  46.4528290  11.1047460   7.1405250
  47.2839870  12.1358930   7.8738690  38.7126680   2.6512040   9.6272740
  38.5329520   1.7537790   9.9075500  38.3106760   3.1983910  10.3019690
  47.5525180   4.8527900   7.5285050  47.9290000   3.9799780   7.4158720
  47.4544690   5.1886600   6.6375490  41.6830190   3.2253530   2.9902490
  41.7896940   4.1257260   3.2971250  40.7722550   3.1771500   2.6997140
  51.3349300   2.3478340   4.4613390  52.1558920   1.8574910   4.5038870
  51.3683380   2.9376000   5.2145230  39.3313350   5.1472540   8.2355080
  40.0123460   5.4110910   8.8542480  39.0161400   4.3073410   8.5693090
  43.5237920   6.1939900   7.3227670  44.0316140   6.6920870   7.9632690
  44.0551160   5.4175100   7.1467030  55.6248850   4.3645090  11.0257020
  54.9201020   4.7526800  10.5072130  55.8906770   5.0595380  11.6277950
  48.1945110  10.9457770   3.0880990  47.5762380  11.4107220   2.5243710
  48.7068360  11.6385250   3.5050500  43.0576870  10.4733640   9.7664590
  42.7246250  11.1002560  10.4085660  43.2343550  10.9995520   8.9866260
  51.5710780   4.2878720   7.2340930  50.8666350   4.5763610   7.8144040
  51.9322940   5.0978830   6.8740490  41.4889350   2.5448420   9.5961540
  41.8306160   3.3890470   9.3015410  40.5505160   2.6932160   9.7126880
  42.2695970  12.4414440  11.5813770  42.8869970  13.1165520  11.2998220
  41.4089090  12.8502420  11.4901270  53.1873560  13.9053850   9.4968410
  52.5037080  14.5752960   9.4885080  53.7267850  14.1034500   8.7313270
  54.6397700   3.7333510   7.6250140  53.6922610   3.7672490   7.7565570
  54.9647690   4.5472460   8.0099500  50.7232300  15.7497980   8.2113590
  50.7359460  15.3460270   7.3435850  50.1707520  16.5245270   8.1075020
  52.0177720  12.4714200   3.3003760  51.9074050  11.5288530   3.4253180
  52.0145970  12.8329840   4.1866520  50.1217740  10.6527820   9.5396200
  50.5386530  10.4387930   8.7049660  50.8457560  10.9100610  10.1104820
  47.5598000   8.0979520   2.6566250  46.6327280   8.0316900   2.8854720
  47.7122820   9.0359650   2.5421490  54.0679840   9.0515040   9.6312440
  53.2398470   9.1208130   9.1562570  54.6630320   9.6369350   9.1628270
  51.5895290   9.6599820   3.1601500  50.9707710   9.3219370   2.5127800
  51.5719740   9.0159580   3.8680690  51.0321850   5.8384360  10.5767310
  50.6193030   6.6638070  10.8307300  50.2997800   5.2529400  10.3843670
  43.1654640   8.6244260   5.4385980  42.7611640   7.9121510   4.9431880
  43.2517760   8.2797500   6.3274020  43.6336340  12.3111820   7.6025190
  43.3364630  11.7057290   6.9232970  44.5836160  12.3489130   7.4914550
  41.8783260   5.3987470   9.2185020  42.4297850   5.5082810   8.4438270
  42.3926770   5.7725070   9.9340250  51.7221950  15.8843690  11.2648290
  51.2452510  16.6915880  11.0720900  51.0383740  15.2322020  11.4174500
  42.7254770  12.0493510  14.2532990  41.8283300  12.2733480  14.5006390
  42.7507640  12.1728450  13.3044390  41.5525990   8.9206830  12.8290360
  41.4133760   9.7929630  13.1977760  40.6707350   8.5779640  12.6838300
  47.8755370  13.8382700   4.1355490  48.3151280  14.5807030   3.7210880
  47.8142260  14.0809270   5.0594450  43.3506340  14.8628530  15.0375510
  43.3221770  15.2671480  14.1703940  43.1871310  13.9338890  14.8747110
  39.8659270   7.5189240   2.9392630  39.7456870   8.2451330   2.3273900
  39.5560160   6.7492150   2.4620540  55.3021160  15.6455630  16.3339680
  55.7780880  16.1238520  17.0128760  55.9228320  15.5773120  15.6085180
  37.5044640  10.6904380   8.7461270  37.5825060  10.8253150   7.8016990
  38.1186320   9.9820270   8.9389390  38.7492270  12.3904570   5.1567450
  38.3420350  12.5319160   4.3021050  39.6405280  12.1064730   4.9538660
  54.7054410  12.8368480  13.4939690  54.8317470  12.5980360  12.5756870
  54.7475790  12.0053020  13.9661770  48.5671150  16.5396480  12.0634500
  49.0815820  16.4504490  12.8656930  47.7240230  16.8856180  12.3562410
  43.0213930  16.6050350   3.2690120  42.8456410  15.6885890   3.0557920
  42.1669670  16.9637640   3.5087920  49.8101610  15.9602090   4.1264990
  50.2658560  15.1791470   4.4403610  50.1494130  16.6708910   4.6706170
  54.5578420   4.8900940  14.4589430  53.9422690   5.3980610  13.9304890
  54.2374840   3.9899270  14.4015370  37.5604160  11.7318550  11.2855730
  37.7235200  11.2623910  10.4675100  38.0256610  11.2242110  11.9504570
  46.6192740   3.7292830  11.9251620  46.1572110   3.9375850  12.7371560
  46.2170850   2.9152180  11.6222290  51.6197250   4.9501780  13.0548280
  50.7690840   4.6507530  13.3757350  51.4599040   5.1943790  12.1432100
  48.7146960   6.4503530  15.1547070  49.0400370   5.6167280  14.8149300
  49.5027290   6.9732050  15.3025400  42.1237150   5.9857880   4.0497550
  41.8978070   5.7695050   4.9544170  41.3429680   6.4186340   3.7043520
  49.3534910   5.9921250   2.6488200  48.7543800   6.7157050   2.4651820
  49.9014520   5.9298030   1.8664650  44.5636360   6.8843460  14.7157820
  44.4679960   5.9438190  14.5658220  45.4068340   7.1058530  14.3205890
  47.9599780   4.6284790   4.6791480  48.3529350   4.9456990   3.8660170
  48.3216630   3.7496670   4.7936000  39.6946900   3.2957130  12.8691600
  39.3010290   4.1432340  13.0764380  39.0065300   2.6583500  13.0600240
  46.2691950   3.3792100  15.9388340  45.5790270   3.1864300  16.5734430
  47.0124250   3.6626740  16.4712640  48.5454920   7.2190540   8.7742260
  47.8136040   7.7277350   9.1232360  48.1479260   6.4020520   8.4731040
  44.9832310   3.8944740   7.1794750  44.9868370   3.4534690   6.3299290
  45.8783430   4.2162070   7.2866570  40.8334690   3.7771230   6.1388960
  40.4934740   4.2546460   6.8956010  40.0712010   3.3236350   5.7790060
  49.0080830   2.6724220   8.1865200  49.0253570   3.1232870   9.0307050
  48.7596410   1.7729860   8.3998640  39.1343140  11.1069980  13.4451540
  38.7497930  10.4663650  14.0434500  39.4455330  11.8106100  14.0146270
  45.2840280   7.9546520   8.9260160  45.6510410   7.4805090   9.6721500
  45.0945340   8.8288090   9.2668500  38.1480770   2.6990210   5.0553630
  37.8627690   2.3345880   5.8932250  38.0859630   1.9670670   4.4416770
  43.0739650   6.9955160  11.2444370  42.7696720   7.8747140  11.4694730
  44.0286110   7.0554950  11.2801810  41.6021440  11.2016150   1.8411220
  40.8283700  10.6613770   1.6809940  42.3316070  10.6822760   1.5028980
  52.3609420  10.1981510   7.6337610  53.0808540  10.6936800   7.2433720
  52.1591240   9.5199400   6.9891480  47.7428220  10.2690570  13.5206610
  47.6765530   9.3486240  13.2664200  47.1133360  10.3666010  14.2351250
  41.6458840  10.8696530   5.4790030  42.1637510  10.0664790   5.4246920
  41.1942860  10.8075670   6.3206860  39.1303380   7.8357900  12.3915730
  38.7718320   8.5011750  12.9789070  38.8357940   7.0041450  12.7628350
  42.3316500   8.2942140  15.2755280  42.0316640   8.4399320  14.3783100
  43.1027740   7.7347430  15.1828670  47.6744950  13.0911140  13.2710410
  47.6889490  12.1592100  13.0529320  46.9670050  13.1770900  13.9100180
  53.8856160   9.7318480  12.6178990  53.1604350  10.3247260  12.4208380
  54.4131620   9.7242020  11.8192360  53.8369270  14.1293220   2.2691150
  53.1945430  13.4748840   2.5434870  53.4499930  14.5348310   1.4931820
  49.4155750  11.4578650   6.1162840  49.7679570  10.8606780   5.4564210
  48.5318080  11.1322880   6.2871090  45.5019030  12.2176340   3.5233250
  46.1890160  12.7645550   3.9040840  44.7151450  12.7617070   3.5582860
  44.8046240   9.2222370   3.1358610  45.2609020  10.0327620   3.3618800
  44.4534450   8.9045510   3.9677100  47.1078850  14.7328710  10.3650910
  47.7521070  14.9388090  11.0424330  47.4708290  13.9717110   9.9121760
  48.3810930  12.7361060   9.0828360  49.0233160  12.0354220   9.1960530
  48.9060280  13.5159500   8.9025250  50.1548550  13.5355960  12.2864420
  50.4904790  14.1222650  12.9642340  49.2348890  13.4048670  12.5162210
  37.9924540  15.3131400  14.0554360  38.1015660  14.3726140  13.9149750
  37.3405100  15.5786150  13.4068090  45.9837130  13.5847290  15.4552480
  45.6634000  12.8656530  15.9998170  45.3095490  14.2602360  15.5288540
  49.1990730   3.8173450  10.8189280  49.5671550   2.9968660  11.1468850
  48.3388930   3.8775340  11.2344930  44.5336790   5.0516340   3.0434720
  43.8252940   5.5202680   3.4848330  44.8181270   4.3938350   3.6779910
  46.1592720   6.4713040  11.0427250  46.6577970   6.9458860  11.7079100
  46.3015670   5.5476560  11.2497280  48.5652220   1.7767000   4.4830510
  48.4420000   1.7953130   3.5340020  49.5136780   1.8245940   4.6028910
  45.6529010  17.0122300   3.7558490  45.9070510  16.9743690   2.8337860
  44.7041490  16.8855630   3.7486740  53.3659580   2.6881000  11.8855640
  52.8633180   3.4286400  12.2249450  54.1816240   3.0765000  11.5692430
  51.6581590   7.9314180   5.3317000  50.7171730   7.9464410   5.5064690
  51.9725660   7.1450140   5.7777300  53.6607170  15.1023030   7.0071260
  53.7854590  15.9254200   7.4795070  54.5272730  14.8913760   6.6595410
  41.1324700  17.1954240   6.6788390  41.8687180  16.6469700   6.9496960
  41.5165620  18.0610250   6.5394380  38.0170180  13.2627810   2.5529900
  37.0909960  13.5048950   2.5435310  38.4826610  14.0902070   2.4314650
  40.1382980  16.3800310  15.8673970  40.9395710  16.7012360  16.2809370
  39.6234800  16.0195890  16.5893880  48.9747610  12.4880180  15.8149380
  48.3685770  12.5111780  15.0745130  48.6701720  11.7563220  16.3516630
  50.4047980  16.2160470  14.4258790  51.3569730  16.1318490  14.3759030
  50.2576200  16.8802180  15.0992580  37.8580790   8.8673770  14.8110020
  38.3619810   8.2881050  15.3826250  37.1188210   9.1514000  15.3486390
  44.9118730  10.2744760  14.3445540  44.1464400  10.8429760  14.2600210
  45.0934690   9.9820970  13.4513770  52.0542080  12.0050090  14.9020560
  52.7951550  12.3425850  14.3988020  51.2914760  12.1742150  14.3490330
  39.8903870   7.0103360  15.7060090  39.9309210   6.7117230  16.6145320
  40.7449370   7.4110970  15.5467610  41.8309680   5.5895460  13.6734580
  41.3006140   5.0986410  13.0457920  42.4997750   6.0179660  13.1392510
  50.7287740  10.0564920  13.4375770  51.1428760  10.2110000  14.2866190
  49.7938740  10.1820140  13.6001550  51.2009910   7.3961080  15.4414920
  51.7830680   6.6413400  15.3535400  51.3771680   7.9268520  14.6646400
  42.3181980   2.5557830  13.7531870  42.2238850   1.9378580  13.0282740
  41.7379370   3.2824120  13.5261780  45.4902970  10.0085400  11.4071700
  45.9091080  10.8518130  11.2347940  44.5711600  10.1457440  11.1778480
  47.8266870   7.7401580  12.7909540  47.9463080   7.1442720  13.5304380
  48.6860870   7.7771270  12.3710840  50.1654770   8.2938770  11.3672050
  49.6389990   8.8181390  10.7637190  50.5086110   8.9266160  11.9981780
  43.3410390  16.3138410  12.5229430  42.8031480  17.0384470  12.2038130
  43.5944350  15.8368750  11.7326770  44.5935640   4.2822930  14.0485360
  45.1835330   3.9738780  14.7363180  43.7755880   3.8102680  14.2045260
  49.4129070   3.8988740  14.2818380  48.7244590   3.2370280  14.2168370
  50.1335090   3.4527010  14.7266840  46.1972600  17.5489620  12.7816080
  46.1231300  18.4524760  13.0888450  45.2951440  17.2301520  12.7538150
  37.5999890  14.8764210   6.0849700  37.9302900  14.0085270   5.8528340
  38.0290890  15.0822730   6.9154660  42.1961810  13.2073220   3.7451670
  41.8957350  13.0838190   4.6455580  42.0899300  12.3481810   3.3367400
  38.0890100  15.7434800   8.8231330  37.6521090  15.9235600   9.6555480
  38.6567780  16.5009420   8.6813050  53.7252280  15.2451800  13.1108640
  53.1254270  15.3044360  12.3672560  53.8546180  14.3056780  13.2405490
  37.9214530   8.2555030   5.1820210  37.2663370   7.9866670   4.5379910
  38.7592480   8.1459510   4.7322190  55.4270160  10.5867200   5.7954480
  55.7978990   9.8034520   5.3890450  56.0672090  11.2756300   5.6171780
  52.4103920  11.9703780  11.2084800  51.5963760  12.4000940  11.4710590
  52.8178120  12.5822190  10.5953850  54.3694700   7.9620460   3.1014500
  53.9938300   7.1948390   2.6695790  53.6397820   8.3443160   3.5889430
  38.9590460   8.6407600   9.7223550  39.3263500   8.5535000  10.6019570
  38.3901280   7.8774150   9.6230410  53.7594320   7.1091980  12.7354020
  53.5280410   6.8804730  11.8351970  54.0198870   8.0291530  12.6898910
  38.5106460   5.5516690  13.6281970  37.6162510   5.5183450  13.9675680
  39.0504010   5.7503480  14.3933220  52.1982390   2.3348410  15.5133720
  53.0752570   2.3431810  15.8967720  52.2103230   1.5979250  14.9026070
  53.6445660   6.1877950   6.4021740  54.1683140   5.6940600   5.7711910
  54.2305080   6.3228310   7.1469310  53.8235380   6.2717820   9.9241290
  52.8738090   6.2381360  10.0386280  54.0048390   7.1817930   9.6891060
  53.1345630   5.4451300   2.3414150  53.6304750   5.2122170   3.1263030
  52.9361700   4.6063140   1.9251790  54.5632790   4.0812250   4.8751830
  54.4532070   3.9268290   5.8134100  55.3240380   3.5533190   4.6327240
  52.4679970  16.7222380   4.7353070  53.0639040  16.4006950   4.0587490
  52.7258120  16.2494200   5.5266340  40.3742540  13.1540290  14.8843700
  40.3312170  12.7833200  15.7658160  40.5053550  14.0917860  15.0245520
  44.0748570  14.7099880  10.4853420  43.8339930  14.9774440   9.5983940
  45.0151210  14.8805610  10.5404280  55.3352730  16.7294260  11.2864060
  54.8411010  17.1263130  10.5691190  54.7266020  16.1043470  11.6801340
  40.2130570  16.1002540  12.0041480  39.6190890  15.9687240  12.7431520
  40.2054410  15.2640680  11.5383580  53.0192180  17.3717680   8.5650800
  52.5595150  18.1233490   8.1908820  52.3904640  16.6524150   8.5065600
  39.8442800  13.4660920  10.9549520  39.1176860  12.8466210  10.8875470
  39.9051950  13.8601530  10.0847600  43.4487900  15.6805920   7.7398930
  43.9652920  15.0693280   7.2147190  44.0985280  16.1834700   8.2309940
  46.1883400  16.5714410   8.5667910  46.4761210  16.3168710   7.6900920
  46.7006620  16.0191770   9.1573480  38.1272800  16.7835310   4.1646280
  37.9594840  16.1505990   4.8628170  37.2607310  16.9894710   3.8140470
  45.2914630   2.7291360   4.6580450  44.4789140   2.3548250   4.3176330
  45.7956270   1.9736440   4.9601640  46.2555760  17.4930510  15.9336110
  47.1823070  17.2574780  15.9772070  46.2406190  18.3202510  15.4522140
  54.4900820  17.0356080   2.9310360  54.6653010  16.3493820   2.2871280
  53.7922390  17.5603130   2.5387030  52.8233320  16.7200370  15.7577150
  53.6158640  16.2249600  15.5503110  53.1166470  17.3990510  16.3652760
  30.1749490  63.9151780  61.7367160  30.0943540  63.0006390  61.4658870
  29.7613910  64.4118850  61.0306870  28.3067530  65.6930800  63.6176430
  27.5309630  65.2131240  63.9075000  28.9580460  65.0136450  63.4432590
  22.3233360  66.0050610  64.4952190  21.4918240  65.7499320  64.8948700
  22.9314340  66.0761380  65.2310110  32.3274960  70.0990990  62.3975560
  31.8656490  69.3278230  62.7262730  33.1400510  70.1257060  62.9028010
  22.3034620  70.0390700  64.6910210  22.6062660  69.1488440  64.5120430
  23.0478210  70.5960920  64.4632460  20.7325310  60.9652500  58.2794580
  19.8442010  61.3068470  58.1774460  21.0166500  60.7652820  57.3875410
  18.6958320  63.5658150  64.1634280  19.2674430  62.7980350  64.1637920
  18.6959860  63.8646910  63.2540890  27.7476520  68.3687990  63.6246590
  27.6784800  67.4277930  63.4635720  28.5096380  68.4589400  64.1969160
  19.9383190  58.9742510  65.9503210  19.7586030  58.0768260  66.2305970
  19.5363270  59.5214380  66.6250160  28.7781690  61.1758370  63.8515520
  29.1546510  60.3030250  63.7389190  28.6801200  61.5117070  62.9605960
  22.9086700  59.5484000  59.3132960  23.0153450  60.4487730  59.6201720
  21.9979060  59.5001970  59.0227610  32.5605810  58.6708810  60.7843860
  33.3815430  58.1805380  60.8269340  32.5939890  59.2606470  61.5375700
  20.5569860  61.4703010  64.5585550  21.2379970  61.7341380  65.1772950
  20.2417910  60.6303880  64.8923560  24.7494430  62.5170370  63.6458140
  25.2572650  63.0151340  64.2863160  25.2807670  61.7405570  63.4697500
  36.8505360  60.6875560  67.3487490  36.1457530  61.0757270  66.8302600
  37.1163280  61.3825850  67.9508420  23.0330530  57.1568930  67.9121560
  23.0348970  57.6741320  67.1067460  22.2034840  56.6799110  67.8891490
  29.4201620  67.2688240  59.4111460  28.8018890  67.7337690  58.8474180
  29.9324870  67.9615720  59.8280970  24.2833380  66.7964110  66.0895060
  23.9502760  67.4233030  66.7316130  24.4600060  67.3225990  65.3096730
  32.7967290  60.6109190  63.5571400  32.0922860  60.8994080  64.1374510
  33.1579450  61.4209300  63.1970960  22.7145860  58.8678890  65.9192010
  23.0562670  59.7120940  65.6245880  21.7761670  59.0162630  66.0357350
  23.4952480  68.7644910  67.9044240  24.1126480  69.4395990  67.6228690
  22.6345600  69.1732890  67.8131740  18.7884820  67.9544770  56.7851090
  18.4112800  68.4431870  56.0535990  19.0457890  68.6270050  57.4157620
  34.4130070  70.2284320  65.8198880  33.7293590  70.8983430  65.8115550
  34.9524360  70.4264970  65.0543740  35.8654210  60.0563980  63.9480610
  34.9179120  60.0902960  64.0796040  36.1904200  60.8702930  64.3329970
  26.3973750  56.3561160  62.2436600  26.7048730  55.8008050  61.5272100
  25.4674450  56.4905620  62.0609590  33.2434230  68.7944670  59.6234230
  33.1330560  67.8519000  59.7483650  33.2402480  69.1560310  60.5096990
  31.3474250  66.9758290  65.8626670  31.7643040  66.7618400  65.0280130
  32.0714070  67.2331080  66.4335290  28.7854510  64.4209990  58.9796720
  27.8583790  64.3547370  59.2085190  28.9379330  65.3590120  58.8651960
  28.7723590  60.6926990  55.9763880  27.8327260  60.8540950  56.0616340
  29.0906850  61.4112670  55.4299870  35.2936350  65.3745510  65.9542910
  34.4654980  65.4438600  65.4793040  35.8886830  65.9599820  65.4858740
  32.8151800  65.9830290  59.4831970  32.1964220  65.6449840  58.8358270
  32.7976250  65.3390050  60.1911160  32.2578360  62.1614830  66.8997780
  31.8449540  62.9868540  67.1537770  31.5254310  61.5759870  66.7074140
  24.3911150  64.9474730  61.7616450  23.9868150  64.2351980  61.2662350
  24.4774270  64.6027970  62.6504490  24.8592850  68.6342290  63.9255660
  24.5621140  68.0287760  63.2463440  25.8092670  68.6719600  63.8145020
  23.1039770  61.7217940  65.5415490  23.6554360  61.8313280  64.7668740
  23.6183280  62.0955540  66.2570720  30.9916500  65.2217100  56.4904720
  31.4309780  64.3839530  56.3442540  31.7044920  65.8546500  56.5768860
  29.1011880  70.1613170  60.4585960  29.5407790  70.9037500  60.0441350
  29.0398770  70.4039740  61.3824920  34.5733640  56.4759910  54.8045760
  34.2606300  56.5686740  55.7044830  35.3346110  57.0540940  54.7543190
  21.0915780  63.8419710  59.2623100  20.9713380  64.5681800  58.6504370
  20.7816670  63.0722620  58.7851010  18.7301150  67.0134850  65.0691740
  18.8081570  67.1483620  64.1247460  19.3442830  66.3050740  65.2619860
  19.9748780  68.7135040  61.4797920  19.5676860  68.8549630  60.6251520
  20.8661790  68.4295200  61.2769130  31.4708190  70.6569850  56.3746970
  30.7773350  70.6547140  55.7149250  32.2131050  70.2329170  55.9441140
  18.7860670  68.0549020  67.6086200  18.9491710  67.5854380  66.7905570
  19.2513120  67.5472580  68.2735040  23.5579440  57.1854780  62.6446770
  23.1147590  57.9664320  62.3131290  24.1164430  57.5084670  63.3517710
  27.8449250  60.0523300  68.2482090  27.3828620  60.2606320  69.0602030
  27.4427360  59.2382650  67.9452760  26.6738260  56.8065480  57.5252600
  26.0492440  56.8025350  58.2505910  26.5868380  55.9396440  57.1288570
  25.5955340  57.7302110  64.5036370  25.8927670  58.6364940  64.4228390
  26.1440900  57.2420890  63.8895940  23.3493660  62.3088350  60.3728020
  23.1234580  62.0925520  61.2774640  22.5686190  62.7416810  60.0273990
  30.5791420  62.3151720  58.9718670  29.9800310  63.0387520  58.7882290
  31.1271030  62.2528500  58.1895120  29.1856290  60.9515260  61.0021950
  29.5785860  61.2687460  60.1890640  29.5473140  60.0727140  61.1166470
  18.2220460  57.5416060  63.2252150  17.9333510  58.1118920  63.9377130
  18.9666220  57.0620510  63.5883380  18.4090690  61.4836180  54.4354870
  18.3265360  62.4266940  54.5769860  18.0573750  61.3411090  53.5567220
  29.7711430  63.5421010  65.0972730  29.0392550  64.0507820  65.4462830
  29.3735770  62.7250990  64.7961510  26.2088820  60.2175210  63.5025220
  26.2124880  59.7765160  62.6529760  27.1039940  60.5392540  63.6097040
  22.0591200  60.1001700  62.4619430  21.7191250  60.5776930  63.2186480
  21.2968520  59.6466820  62.1020530  26.2708970  61.2187290  56.4931980
  26.3921790  61.1773770  57.4417800  25.8857480  62.0811440  56.3378710
  30.2337340  58.9954690  64.5095670  30.2510080  59.4463340  65.3537520
  29.9852920  58.0960330  64.7229110  25.2830470  63.5288430  55.8915280
  24.7147370  63.0806680  55.2651190  25.9919470  63.8881210  55.3580430
  26.5096790  64.2776990  65.2490630  26.8766920  63.8035560  65.9951970
  26.3201850  65.1518560  65.5898970  19.3737280  59.0220680  61.3784100
  19.0884200  58.6576350  62.2162720  19.3116140  58.2901140  60.7647240
  24.2996160  63.3185630  67.5674840  23.9953230  64.1977610  67.7925200
  25.2542620  63.3785420  67.6032280  22.8277950  67.5246620  58.1641690
  22.0540210  66.9844240  58.0040410  23.5572580  67.0053230  57.8259450
  33.5865930  66.5211980  63.9568080  34.3065050  67.0167270  63.5664190
  33.3847750  65.8429870  63.3121950  29.0475870  57.9149940  58.0997470
  28.2340480  57.4163110  58.0242780  28.8537820  58.7548190  57.6833820
  31.7624260  62.2869590  56.3959630  32.6503880  62.5986820  56.2210970
  31.7329350  61.4141840  56.0040210  22.8715350  67.1927000  61.8020500
  23.3894020  66.3895260  61.7477390  22.4199370  67.1306140  62.6437330
  27.7584850  68.4593280  57.0747800  28.1000550  69.2035510  56.5791120
  26.9297560  68.7724400  57.4372630  34.0338530  63.5981430  55.8639490
  33.9502250  64.0295650  55.0135930  34.7532720  64.0579780  56.2966310
  35.1112670  66.0548950  68.9409460  34.3860860  66.6477730  68.7438850
  35.6388130  66.0472490  68.1422830  35.0625780  70.4523690  58.5921620
  34.4201940  69.7979310  58.8665340  34.6756440  70.8578780  57.8162290
  30.6412260  67.7809120  62.4393310  30.9936080  67.1837250  61.7794680
  29.7574590  67.4553350  62.6101560  26.7275540  68.5406810  59.8463720
  27.4146670  69.0876020  60.2271310  25.9407960  69.0847540  59.8813330
  18.8667940  64.1579630  55.3380800  19.7362790  64.4404430  55.6216720
  18.3758260  64.9715500  55.2229610  26.0302750  65.5452840  59.4589080
  26.4865530  66.3558090  59.6849270  25.6790960  65.2275980  60.2907570
  28.3335360  71.0559180  66.6881380  28.9777580  71.2618560  67.3654800
  28.6964800  70.2947580  66.2352230  21.9314530  55.8890490  59.9311600
  21.8029160  55.8808390  60.8796520  21.1076550  56.2273580  59.5802610
  29.6067440  69.0591530  65.4058830  30.2489670  68.3584690  65.5191000
  30.1316790  69.8389970  65.2255720  33.4523160  69.3440150  55.1297970
  33.2260740  68.6270590  55.7222610  33.0619360  69.0952590  54.2919720
  33.0339410  67.2612090  56.7912130  32.7461110  67.7224780  57.5790010
  33.8291580  66.8009860  57.0596350  25.2507810  70.7538210  56.7216100
  25.2417910  71.4867900  56.1060610  24.3306170  70.5069790  56.8143060
  20.8514450  65.9753100  57.4662860  20.2442400  66.7152000  57.4758160
  21.3263800  66.0652460  56.6401060  30.4247240  60.1403920  67.1419750
  30.7928060  59.3199130  67.4699320  29.5645440  60.2005810  67.5575400
  33.7909270  59.0960860  57.9507310  33.1622430  59.2006530  57.2365540
  33.2961190  59.3157640  58.7401190  28.2367410  70.8166450  55.3841290
  28.3379390  70.6130440  54.4543270  27.3369150  70.5624730  55.5889070
  25.7593300  61.3746810  59.3665190  25.0509450  61.8433150  59.8078800
  26.0437780  60.7168820  60.0010380  27.3849230  62.7943510  67.3657720
  27.8834480  63.2689330  68.0309570  27.5272180  61.8707030  67.5727750
  29.7908730  58.0997470  60.8060980  29.6676510  58.1183600  59.8570490
  30.7393290  58.1476410  60.9259380  23.9628320  59.6831890  56.7415900
  24.8118850  60.1202040  56.6756090  23.5959590  59.9952150  57.5687960
  34.5916090  59.0111470  68.2086110  34.0889690  59.7516870  68.5479920
  35.4072750  59.3995470  67.8922900  32.8838100  64.2544650  61.6547470
  31.9428240  64.2694880  61.8295160  33.1982170  63.4680610  62.1007770
  22.8619740  65.9364250  55.2151430  23.6283010  65.8245610  55.7776860
  22.9394430  65.2402220  54.5628200  21.5566500  63.3689320  55.8984320
  21.6370090  62.4216830  56.0101720  22.4486250  63.6996200  56.0044980
  19.2426690  69.5858280  58.8760370  18.3166470  69.8279420  58.8665780
  19.7083120  70.4132540  58.7545120  25.9860920  67.9118430  54.6886780
  25.8811560  67.2970780  55.4148160  25.8185140  67.3884320  53.9049790
  29.2263650  66.9738460  55.2928770  28.6773750  67.4207760  55.9371510
  29.8482910  66.4687710  55.8166440  24.8938770  65.9329380  57.1894070
  25.3155190  65.7669250  58.0325460  25.0189610  65.1229610  56.6949210
  27.4066410  64.9566990  54.4371170  27.9272070  64.2416010  54.0712320
  28.0534810  65.5952860  54.7371680  26.3099930  57.4361540  67.1089730
  25.8617230  57.4585800  66.2635280  25.6765130  57.0380560  67.7060030
  26.7159480  66.3315870  67.7302170  27.1347590  67.1748600  67.5578410
  25.7968110  66.4687910  67.5008950  31.3911280  64.6169240  67.6902520
  30.8646500  65.1411860  67.0867660  31.7342620  65.2496630  68.3212250
  23.7897670  62.0062610  54.1352230  23.5886730  61.1429970  54.4965570
  23.6189720  61.9195970  53.1973830  31.2685980  56.8170840  56.6639110
  31.5488270  55.9738740  57.0198530  30.4951710  57.0493950  57.1777860
  22.5880470  59.1063230  54.1230110  22.8906370  59.1130660  53.2149260
  23.3275060  58.7561090  54.6197770  25.8065400  58.0497850  55.1086310
  25.4587400  57.3721840  54.5288760  26.0078170  57.5887360  55.9229700
  21.6110600  68.4105650  54.9559910  22.0485470  68.9535320  55.6117490
  22.0958330  67.5852600  54.9656250  18.8256400  71.1994680  62.4080170
  19.1559410  70.3315740  62.1758810  19.2547400  71.4053200  63.2385130
  23.4218320  69.5303690  60.0682140  23.1213860  69.4068660  60.9686050
  23.3155810  68.6712280  59.6597870  36.1910240  69.3100090  54.7708820
  35.3603200  69.3776740  55.2416050  36.3682070  70.2004210  54.4675680
  35.6466700  66.0547570  57.2743020  36.4085610  66.6244220  57.3802710
  35.6621070  65.4874770  58.0451330  19.1471040  64.5785500  61.5050680
  18.4919880  64.3097140  60.8610380  19.9848990  64.4689980  61.0552660
  36.6526670  66.9097670  62.1184950  37.0235500  66.1264990  61.7120920
  37.2928600  67.5986770  61.9402250  33.6360430  68.2934250  67.5315270
  32.8220270  68.7231410  67.7941060  34.0434630  68.9052660  66.9184320
  35.6985870  66.3481940  54.4315540  35.9734710  67.2560820  54.3034760
  35.5096610  66.2844470  55.3677530  32.0961480  59.3726790  55.7269170
  32.5146360  59.1857770  54.8865830  31.7897540  58.5205840  56.0372100
  35.5951210  64.2850930  59.4244970  35.2194810  63.5178860  58.9926260
  34.8654330  64.6673630  59.9119900  20.1846970  64.9638070  66.0454020
  20.5520010  64.8765470  66.9250040  19.6157790  64.2004620  65.9460880
  34.9850830  63.4322450  69.0584490  34.7536920  63.2035200  68.1582440
  35.2455380  64.3522000  69.0129380  18.3609120  61.7884430  57.4476010
  17.4573200  62.0514630  57.2727670  18.8449740  62.0595600  56.6675970
  34.8702170  62.5108420  62.7252210  35.3939650  62.0171070  62.0942380
  35.4561590  62.6458780  63.4699780  35.0491890  62.5948290  66.2471760
  34.0994600  62.5611830  66.3616750  35.2304900  63.5048400  66.0121530
  20.9036330  60.8449970  55.3570390  21.6128030  60.4233190  54.8717670
  20.1876270  60.9125200  54.7253740  20.5510490  56.8989300  54.3973040
  21.2738620  57.4398240  54.7154260  20.8235010  56.6252720  53.5214580
  34.3602140  61.7681770  58.6644620  34.8561260  61.5352640  59.4493500
  34.1618210  60.9293610  58.2482260  20.2402680  56.1495490  64.2995660
  20.8878870  55.5992870  63.8590820  20.6604520  56.4038640  65.1211470
  35.7889300  60.4042720  61.1982300  35.6788580  60.2498760  62.1364570
  36.5496890  59.8763660  60.9557710  34.1355020  56.3436850  67.6565300
  34.7727240  56.9570990  68.0224490  34.2829910  56.3797510  66.7114530
  36.6779570  58.2350640  54.4388440  37.6028880  58.1031820  54.2306730
  36.6555360  58.3143460  55.3924890  36.7518060  59.0061300  57.0645150
  35.9569560  58.9406420  57.5938060  36.9561340  59.9411940  57.0530500
  19.9934680  56.3051160  67.0420980  19.6449500  56.7614980  67.8079160
  19.6622380  55.4108290  67.1243410  25.3005080  71.0330350  66.8083890
  25.0596440  71.3004910  65.9214410  26.2407720  71.2036080  66.8634750
  30.8842100  55.7165240  66.5301980  30.0101940  56.0500350  66.3274910
  30.7752850  55.2438420  67.3553850  31.7914080  57.9236110  67.9143700
  31.4627440  57.1087870  67.5345430  32.7396380  57.8805920  67.7909390
  21.0699310  69.7891390  67.2779990  20.3433370  69.1696680  67.2105940
  21.1308460  70.1832000  66.4078070  28.6316920  56.6335080  65.4694890
  27.8488710  57.1080580  65.7491650  28.3379850  55.7289910  65.3608070
  33.1837990  57.3358180  63.5143980  33.6246080  57.2803280  62.6665580
  32.9145580  58.2516190  63.5854160  35.0476560  56.9673420  61.5252800
  34.9864960  56.0234640  61.3783820  35.8268590  57.0753510  62.0706260
  19.9757330  56.9382560  57.9908610  20.7336690  57.0511440  57.4172640
  19.5134500  57.7751760  57.9452040  26.5171140  59.0521830  60.9810920
  25.7045650  58.6778720  60.6406800  27.0212780  58.2966910  61.2832110
  31.0196120  55.7164280  62.2193990  31.6225490  56.2884490  62.6942510
  30.2789110  56.2803720  61.9967890  34.1630720  56.1185840  57.4934270
  34.3581350  57.0169290  57.7601700  33.3760590  55.8872920  57.9867220
  22.3482480  57.4646610  56.5310580  22.8775240  56.6776410  56.4018530
  22.9810800  58.1437800  56.7646110  24.5420320  57.2021750  59.5855970
  23.9123060  56.5009060  59.7526100  24.0025460  57.9625880  59.3689130
  22.7199770  69.8646120  56.8122470  22.0908650  70.3331220  57.3608300
  22.8347600  69.0195340  57.2468660  30.1749490  63.9151780  42.9623670
  30.0943540  63.0006390  42.6915380  29.7613910  64.4118850  42.2563380
  28.3067530  65.6930800  44.8432940  27.5309630  65.2131240  45.1331510
  28.9580460  65.0136450  44.6689100  22.3233360  66.0050610  45.7208700
  21.4918240  65.7499320  46.1205210  22.9314340  66.0761380  46.4566620
  32.3274960  70.0990990  43.6232070  31.8656490  69.3278230  43.9519240
  33.1400510  70.1257060  44.1284520  22.3034620  70.0390700  45.9166720
  22.6062660  69.1488440  45.7376940  23.0478210  70.5960920  45.6888970
  20.7325310  60.9652500  39.5051090  19.8442010  61.3068470  39.4030970
  21.0166500  60.7652820  38.6131920  18.6958320  63.5658150  45.3890790
  19.2674430  62.7980350  45.3894430  18.6959860  63.8646910  44.4797400
  27.7476520  68.3687990  44.8503100  27.6784800  67.4277930  44.6892230
  28.5096380  68.4589400  45.4225670  19.9383190  58.9742510  47.1759720
  19.7586030  58.0768260  47.4562480  19.5363270  59.5214380  47.8506670
  28.7781690  61.1758370  45.0772030  29.1546510  60.3030250  44.9645700
  28.6801200  61.5117070  44.1862470  22.9086700  59.5484000  40.5389470
  23.0153450  60.4487730  40.8458230  21.9979060  59.5001970  40.2484120
  32.5605810  58.6708810  42.0100370  33.3815430  58.1805380  42.0525850
  32.5939890  59.2606470  42.7632210  20.5569860  61.4703010  45.7842060
  21.2379970  61.7341380  46.4029460  20.2417910  60.6303880  46.1180070
  24.7494430  62.5170370  44.8714650  25.2572650  63.0151340  45.5119670
  25.2807670  61.7405570  44.6954010  36.8505360  60.6875560  48.5744000
  36.1457530  61.0757270  48.0559110  37.1163280  61.3825850  49.1764930
  23.0330530  57.1568930  49.1378070  23.0348970  57.6741320  48.3323970
  22.2034840  56.6799110  49.1148000  29.4201620  67.2688240  40.6367970
  28.8018890  67.7337690  40.0730690  29.9324870  67.9615720  41.0537480
  24.2833380  66.7964110  47.3151570  23.9502760  67.4233030  47.9572640
  24.4600060  67.3225990  46.5353240  32.7967290  60.6109190  44.7827910
  32.0922860  60.8994080  45.3631020  33.1579450  61.4209300  44.4227470
  22.7145860  58.8678890  47.1448520  23.0562670  59.7120940  46.8502390
  21.7761670  59.0162630  47.2613860  23.4952480  68.7644910  49.1300750
  24.1126480  69.4395990  48.8485200  22.6345600  69.1732890  49.0388250
  18.7884820  67.9544770  38.0107600  18.4112800  68.4431870  37.2792500
  19.0457890  68.6270050  38.6414130  34.4130070  70.2284320  47.0455390
  33.7293590  70.8983430  47.0372060  34.9524360  70.4264970  46.2800250
  35.8654210  60.0563980  45.1737120  34.9179120  60.0902960  45.3052550
  36.1904200  60.8702930  45.5586480  26.3973750  56.3561160  43.4693110
  26.7048730  55.8008050  42.7528610  25.4674450  56.4905620  43.2866100
  33.2434230  68.7944670  40.8490740  33.1330560  67.8519000  40.9740160
  33.2402480  69.1560310  41.7353500  31.3474250  66.9758290  47.0883180
  31.7643040  66.7618400  46.2536640  32.0714070  67.2331080  47.6591800
  28.7854510  64.4209990  40.2053230  27.8583790  64.3547370  40.4341700
  28.9379330  65.3590120  40.0908470  28.7723590  60.6926990  37.2020390
  27.8327260  60.8540950  37.2872850  29.0906850  61.4112670  36.6556380
  35.2936350  65.3745510  47.1799420  34.4654980  65.4438600  46.7049550
  35.8886830  65.9599820  46.7115250  32.8151800  65.9830290  40.7088480
  32.1964220  65.6449840  40.0614780  32.7976250  65.3390050  41.4167670
  32.2578360  62.1614830  48.1254290  31.8449540  62.9868540  48.3794280
  31.5254310  61.5759870  47.9330650  24.3911150  64.9474730  42.9872960
  23.9868150  64.2351980  42.4918860  24.4774270  64.6027970  43.8761000
  24.8592850  68.6342290  45.1512170  24.5621140  68.0287760  44.4719950
  25.8092670  68.6719600  45.0401530  23.1039770  61.7217940  46.7672000
  23.6554360  61.8313280  45.9925250  23.6183280  62.0955540  47.4827230
  23.9511280  68.3723980  51.8019970  23.0539810  68.5963950  52.0493370
  23.9764150  68.4958920  50.8531370  30.9916500  65.2217100  37.7161230
  31.4309780  64.3839530  37.5699050  31.7044920  65.8546500  37.8025370
  22.7782500  65.2437300  50.3777340  22.6390270  66.1160100  50.7464740
  21.8963860  64.9010110  50.2325280  29.1011880  70.1613170  41.6842470
  29.5407790  70.9037500  41.2697860  29.0398770  70.4039740  42.6081430
  24.5762850  71.1859000  52.5862490  24.5478280  71.5901950  51.7190920
  24.4127820  70.2569360  52.4234090  34.5733640  56.4759910  36.0302270
  34.2606300  56.5686740  36.9301340  35.3346110  57.0540940  35.9799700
  21.0915780  63.8419710  40.4879610  20.9713380  64.5681800  39.8760880
  20.7816670  63.0722620  40.0107520  18.7301150  67.0134850  46.2948250
  18.8081570  67.1483620  45.3503970  19.3442830  66.3050740  46.4876370
  19.9748780  68.7135040  42.7054430  19.5676860  68.8549630  41.8508030
  20.8661790  68.4295200  42.5025640  35.9310920  69.1598950  51.0426670
  36.0573980  68.9210830  50.1243850  35.9732300  68.3283490  51.5148750
  31.4708190  70.6569850  37.6003480  30.7773350  70.6547140  36.9405760
  32.2131050  70.2329170  37.1697650  35.7834930  61.2131410  52.0076410
  35.1679200  61.7211080  51.4791870  35.4631350  60.3129740  51.9502350
  18.7860670  68.0549020  48.8342710  18.9491710  67.5854380  48.0162080
  19.2513120  67.5472580  49.4991550  23.5579440  57.1854780  43.8703280
  23.1147590  57.9664320  43.5387800  24.1164430  57.5084670  44.5774220
  27.8449250  60.0523300  49.4738600  27.3828620  60.2606320  50.2858540
  27.4427360  59.2382650  49.1709270  32.8453760  61.2732250  50.6035260
  31.9947350  60.9738000  50.9244330  32.6855550  61.5174260  49.6919080
  29.9403470  62.7734000  52.7034050  30.2656880  61.9397750  52.3636280
  30.7283800  63.2962520  52.8512380  26.6738260  56.8065480  38.7509110
  26.0492440  56.8025350  39.4762420  26.5868380  55.9396440  38.3545080
  25.5955340  57.7302110  45.7292880  25.8927670  58.6364940  45.6484900
  26.1440900  57.2420890  45.1152450  23.3493660  62.3088350  41.5984530
  23.1234580  62.0925520  42.5031150  22.5686190  62.7416810  41.2530500
  30.5791420  62.3151720  40.1975180  29.9800310  63.0387520  40.0138800
  31.1271030  62.2528500  39.4151630  25.7892870  63.2073930  52.2644800
  25.6936470  62.2668660  52.1145200  26.6324850  63.4289000  51.8692870
  29.1856290  60.9515260  42.2278460  29.5785860  61.2687460  41.4147150
  29.5473140  60.0727140  42.3422980  20.9203410  59.6187600  50.4178580
  20.5266800  60.4662810  50.6251360  20.2321810  58.9813970  50.6087220
  27.4948460  59.7022570  53.4875320  26.8046780  59.5094770  54.1221410
  28.2380760  59.9857210  54.0199620  18.2220460  57.5416060  44.4508660
  17.9333510  58.1118920  45.1633640  18.9666220  57.0620510  44.8139890
  18.4090690  61.4836180  35.6611380  18.3265360  62.4266940  35.8026370
  18.0573750  61.3411090  34.7823730  29.7711430  63.5421010  46.3229240
  29.0392550  64.0507820  46.6719340  29.3735770  62.7250990  46.0218020
  26.2088820  60.2175210  44.7281730  26.2124880  59.7765160  43.8786270
  27.1039940  60.5392540  44.8353550  22.0591200  60.1001700  43.6875940
  21.7191250  60.5776930  44.4442990  21.2968520  59.6466820  43.3277040
  26.2708970  61.2187290  37.7188490  26.3921790  61.1773770  38.6674310
  25.8857480  62.0811440  37.5635220  30.2337340  58.9954690  45.7352180
  30.2510080  59.4463340  46.5794030  29.9852920  58.0960330  45.9485620
  25.2830470  63.5288430  37.1171790  24.7147370  63.0806680  36.4907700
  25.9919470  63.8881210  36.5836940  33.6608090  56.4086870  51.5738560
  33.9853860  55.6776530  52.0996540  33.6964600  56.0900510  50.6719550
  20.3599650  67.4300450  50.9938520  19.9754440  66.7894120  51.5921480
  20.6711840  68.1336570  51.5633250  26.5096790  64.2776990  46.4747140
  26.8766920  63.8035560  47.2208480  26.3201850  65.1518560  46.8155480
  19.3737280  59.0220680  42.6040610  19.0884200  58.6576350  43.4419230
  19.3116140  58.2901140  41.9903750  24.2996160  63.3185630  48.7931350
  23.9953230  64.1977610  49.0181710  25.2542620  63.3785420  48.8288790
  22.8277950  67.5246620  39.3898200  22.0540210  66.9844240  39.2296920
  23.5572580  67.0053230  39.0515960  33.5865930  66.5211980  45.1824590
  34.3065050  67.0167270  44.7920700  33.3847750  65.8429870  44.5378460
  29.0475870  57.9149940  39.3253980  28.2340480  57.4163110  39.2499290
  28.8537820  58.7548190  38.9090330  28.9684730  66.5921040  51.0693590
  28.9022040  65.6716710  50.8151180  28.3389870  66.6896480  51.7838230
  31.7624260  62.2869590  37.6216140  32.6503880  62.5986820  37.4467480
  31.7329350  61.4141840  37.2296720  22.8715350  67.1927000  43.0277010
  23.3894020  66.3895260  42.9733900  22.4199370  67.1306140  43.8693840
  27.7584850  68.4593280  38.3004310  28.1000550  69.2035510  37.8047630
  26.9297560  68.7724400  38.6629140  20.3559890  64.1588370  49.9402710
  19.9974830  64.8242220  50.5276050  20.0614450  63.3271920  50.3115330
  23.5573010  64.6172610  52.8242260  23.2573150  64.7629790  51.9270080
  24.3284250  64.0577900  52.7315650  28.9001460  69.4141610  50.8197390
  28.9146000  68.4822570  50.6016300  28.1926560  69.5001370  51.4587160
  34.0338530  63.5981430  37.0896000  33.9502250  64.0295650  36.2392440
  34.7532720  64.0579780  37.5222820  35.1112670  66.0548950  50.1665970
  34.3860860  66.6477730  49.9695360  35.6388130  66.0472490  49.3679340
  35.0625780  70.4523690  39.8178130  34.4201940  69.7979310  40.0921850
  34.6756440  70.8578780  39.0418800  30.6412260  67.7809120  43.6649820
  30.9936080  67.1837250  43.0051190  29.7574590  67.4553350  43.8358070
  26.7275540  68.5406810  41.0720230  27.4146670  69.0876020  41.4527820
  25.9407960  69.0847540  41.1069840  18.8667940  64.1579630  36.5637310
  19.7362790  64.4404430  36.8473230  18.3758260  64.9715500  36.4486120
  26.0302750  65.5452840  40.6845590  26.4865530  66.3558090  40.9105780
  25.6790960  65.2275980  41.5164080  28.3335360  71.0559180  47.9137890
  28.9777580  71.2618560  48.5911310  28.6964800  70.2947580  47.4608740
  21.9314530  55.8890490  41.1568110  21.8029160  55.8808390  42.1053030
  21.1076550  56.2273580  40.8059120  29.6067440  69.0591530  46.6315340
  30.2489670  68.3584690  46.7447510  30.1316790  69.8389970  46.4512230
  33.4523160  69.3440150  36.3554480  33.2260740  68.6270590  36.9479120
  33.0619360  69.0952590  35.5176230  31.3805060  69.8586430  49.8351400
  31.7161300  70.4453120  50.5129320  30.4605400  69.7279140  50.0649190
  18.9308460  57.6481610  50.6174810  18.2166980  57.8478530  51.2227420
  19.3503500  56.8721180  50.9889610  33.0339410  67.2612090  38.0168640
  32.7461110  67.7224780  38.8046520  33.8291580  66.8009860  38.2852860
  27.2093640  69.9077760  53.0039460  26.8890510  69.1887000  53.5485150
  26.5352000  70.5832830  53.0775520  25.2507810  70.7538210  37.9472610
  25.2417910  71.4867900  37.3317120  24.3306170  70.5069790  38.0399570
  20.8514450  65.9753100  38.6919370  20.2442400  66.7152000  38.7014670
  21.3263800  66.0652460  37.8657570  30.4247240  60.1403920  48.3676260
  30.7928060  59.3199130  48.6955830  29.5645440  60.2005810  48.7831910
  33.7909270  59.0960860  39.1763820  33.1622430  59.2006530  38.4622050
  33.2961190  59.3157640  39.9657700  28.2367410  70.8166450  36.6097800
  28.3379390  70.6130440  35.6799780  27.3369150  70.5624730  36.8145580
  25.7593300  61.3746810  40.5921700  25.0509450  61.8433150  41.0335310
  26.0437780  60.7168820  41.2266890  27.3849230  62.7943510  48.5914230
  27.8834480  63.2689330  49.2566080  27.5272180  61.8707030  48.7984260
  29.7908730  58.0997470  42.0317490  29.6676510  58.1183600  41.0827000
  30.7393290  58.1476410  42.1515890  23.9628320  59.6831890  37.9672410
  24.8118850  60.1202040  37.9012600  23.5959590  59.9952150  38.7944470
  34.5916090  59.0111470  49.4342620  34.0889690  59.7516870  49.7736430
  35.4072750  59.3995470  49.1179410  32.8838100  64.2544650  42.8803980
  31.9428240  64.2694880  43.0551670  33.1982170  63.4680610  43.3264280
  22.8619740  65.9364250  36.4407940  23.6283010  65.8245610  37.0033370
  22.9394430  65.2402220  35.7884710  21.5566500  63.3689320  37.1240830
  21.6370090  62.4216830  37.2358230  22.4486250  63.6996200  37.2301490
  19.2426690  69.5858280  40.1016880  18.3166470  69.8279420  40.0922290
  19.7083120  70.4132540  39.9801630  30.2004120  68.8110650  53.3636360
  29.5942280  68.8342250  52.6232110  29.8958230  68.0793690  53.9003610
  19.0837300  65.1904240  52.3597000  19.5876320  64.6111520  52.9313230
  18.3444720  65.4744470  52.8973370  25.9860920  67.9118430  35.9143290
  25.8811560  67.2970780  36.6404670  25.8185140  67.3884320  35.1306300
  26.1375240  66.5975230  51.8932520  25.3720910  67.1660230  51.8087190
  26.3191200  66.3051440  51.0000750  29.2263650  66.9738460  36.5185280
  28.6773750  67.4207760  37.1628020  29.8482910  66.4687710  37.0422950
  33.2798590  68.3280560  52.4507540  34.0208060  68.6656320  51.9475000
  32.5171270  68.4972620  51.8977310  21.1160380  63.3333830  53.2547070
  21.1565720  63.0347700  54.1632300  21.9705880  63.7341440  53.0954590
  24.8938770  65.9329380  38.4150580  25.3155190  65.7669250  39.2581970
  25.0189610  65.1229610  37.9205720  23.0566190  61.9125930  51.2221560
  22.5262650  61.4216880  50.5944900  23.7254260  62.3410130  50.6879490
  27.4066410  64.9566990  35.6627680  27.9272070  64.2416010  35.2968830
  28.0534810  65.5952860  35.9628190  31.9544250  66.3795390  50.9862750
  32.3685270  66.5340470  51.8353170  31.0195250  66.5050610  51.1488530
  32.4266420  63.7191550  52.9901900  33.0087190  62.9643870  52.9022380
  32.6028190  64.2498990  52.2133380  23.5438490  58.8788300  51.3018850
  23.4495360  58.2609050  50.5769720  22.9635880  59.6054590  51.0748760
  26.3099930  57.4361540  48.3346240  25.8617230  57.4585800  47.4891790
  25.6765130  57.0380560  48.9316540  26.7159480  66.3315870  48.9558680
  27.1347590  67.1748600  48.7834920  25.7968110  66.4687910  48.7265460
  29.0523380  64.0632050  50.3396520  29.1719590  63.4673190  51.0791360
  29.9117380  64.1001740  49.9197820  31.3911280  64.6169240  48.9159030
  30.8646500  65.1411860  48.3124170  31.7342620  65.2496630  49.5468760
  23.7897670  62.0062610  35.3608740  23.5886730  61.1429970  35.7222080
  23.6189720  61.9195970  34.4230340  25.8192150  60.6053400  51.5972340
  26.4091840  60.2969250  52.2850160  25.0012390  60.1333150  51.7532240
  30.6385580  60.2219210  51.8305360  29.9501100  59.5600750  51.7655350
  31.3591600  59.7757480  52.2753820  31.2685980  56.8170840  37.8895620
  31.5488270  55.9738740  38.2455040  30.4951710  57.0493950  38.4034370
  22.5880470  59.1063230  35.3486620  22.8906370  59.1130660  34.4405770
  23.3275060  58.7561090  35.8454280  25.8065400  58.0497850  36.3342820
  25.4587400  57.3721840  35.7545270  26.0078170  57.5887360  37.1486210
  21.6110600  68.4105650  36.1816420  22.0485470  68.9535320  36.8374000
  22.0958330  67.5852600  36.1912760  18.8256400  71.1994680  43.6336680
  19.1559410  70.3315740  43.4015320  19.2547400  71.4053200  44.4641640
  23.4218320  69.5303690  41.2938650  23.1213860  69.4068660  42.1942560
  23.3155810  68.6712280  40.8854380  34.9508790  71.5682270  50.6595620
  34.3510780  71.6274830  49.9159540  35.0802690  70.6287250  50.7892470
  36.1910240  69.3100090  35.9965330  35.3603200  69.3776740  36.4672560
  36.3682070  70.2004210  35.6932190  35.6466700  66.0547570  38.4999530
  36.4085610  66.6244220  38.6059220  35.6621070  65.4874770  39.2707840
  19.1471040  64.5785500  42.7307190  18.4919880  64.3097140  42.0866890
  19.9848990  64.4689980  42.2809170  36.6526670  66.9097670  43.3441460
  37.0235500  66.1264990  42.9377430  37.2928600  67.5986770  43.1658760
  33.6360430  68.2934250  48.7571780  32.8220270  68.7231410  49.0197570
  34.0434630  68.9052660  48.1440830  35.6985870  66.3481940  35.6572050
  35.9734710  67.2560820  35.5291270  35.5096610  66.2844470  36.5934040
  32.0961480  59.3726790  36.9525680  32.5146360  59.1857770  36.1122340
  31.7897540  58.5205840  37.2628610  35.5951210  64.2850930  40.6501480
  35.2194810  63.5178860  40.2182770  34.8654330  64.6673630  41.1376410
  20.1846970  64.9638070  47.2710530  20.5520010  64.8765470  48.1506550
  19.6157790  64.2004620  47.1717390  34.9850830  63.4322450  50.2841000
  34.7536920  63.2035200  49.3838950  35.2455380  64.3522000  50.2385890
  19.7362970  61.8747160  51.1768950  18.8419020  61.8413920  51.5162660
  20.2760520  62.0733950  51.9420200  33.4238900  58.6578880  53.0620700
  34.3009080  58.6662280  53.4454700  33.4359740  57.9209720  52.4513050
  18.3609120  61.7884430  38.6732520  17.4573200  62.0514630  38.4984180
  18.8449740  62.0595600  37.8932480  34.8702170  62.5108420  43.9508720
  35.3939650  62.0171070  43.3198890  35.4561590  62.6458780  44.6956290
  35.0491890  62.5948290  47.4728270  34.0994600  62.5611830  47.5873260
  35.2304900  63.5048400  47.2378040  20.9036330  60.8449970  36.5826900
  21.6128030  60.4233190  36.0974180  20.1876270  60.9125200  35.9510250
  20.5510490  56.8989300  35.6229550  21.2738620  57.4398240  35.9410770
  20.8235010  56.6252720  34.7471090  34.3602140  61.7681770  39.8901130
  34.8561260  61.5352640  40.6750010  34.1618210  60.9293610  39.4738770
  20.2402680  56.1495490  45.5252170  20.8878870  55.5992870  45.0847330
  20.6604520  56.4038640  46.3467980  35.7889300  60.4042720  42.4238810
  35.6788580  60.2498760  43.3621080  36.5496890  59.8763660  42.1814220
  34.1355020  56.3436850  48.8821810  34.7727240  56.9570990  49.2481000
  34.2829910  56.3797510  47.9371040  36.6779570  58.2350640  35.6644950
  37.6028880  58.1031820  35.4563240  36.6555360  58.3143460  36.6181400
  36.7518060  59.0061300  38.2901660  35.9569560  58.9406420  38.8194570
  36.9561340  59.9411940  38.2787010  19.9934680  56.3051160  48.2677490
  19.6449500  56.7614980  49.0335670  19.6622380  55.4108290  48.3499920
  21.5999050  69.4770760  52.4330680  21.5568680  69.1063670  53.3145140
  21.7310060  70.4148330  52.5732500  25.3005080  71.0330350  48.0340400
  25.0596440  71.3004910  47.1470920  26.2407720  71.2036080  48.0891260
  27.5059500  57.4963040  51.7896910  27.4448390  58.0884870  52.5392320
  28.4459880  57.3889000  51.6447170  30.1434060  57.1533100  51.4289200
  30.7574470  57.4712390  50.7670280  30.6883620  56.6681690  52.0485060
  20.6655320  55.8327360  51.5428260  21.2138310  55.6515410  50.7794370
  20.7310630  55.0421470  52.0784570  30.8842100  55.7165240  47.7558490
  30.0101940  56.0500350  47.5531420  30.7752850  55.2438420  48.5810360
  31.7914080  57.9236110  49.1400210  31.4627440  57.1087870  48.7601940
  32.7396380  57.8805920  49.0165900  21.0699310  69.7891390  48.5036500
  20.3433370  69.1696680  48.4362450  21.1308460  70.1832000  47.6334580
  28.6316920  56.6335080  46.6951400  27.8488710  57.1080580  46.9748160
  28.3379850  55.7289910  46.5864580  33.1837990  57.3358180  44.7400490
  33.6246080  57.2803280  43.8922090  32.9145580  58.2516190  44.8110670
  35.0476560  56.9673420  42.7509310  34.9864960  56.0234640  42.6040330
  35.8268590  57.0753510  43.2962770  19.9757330  56.9382560  39.2165120
  20.7336690  57.0511440  38.6429150  19.5134500  57.7751760  39.1708550
  26.5171140  59.0521830  42.2067430  25.7045650  58.6778720  41.8663310
  27.0212780  58.2966910  42.5088620  31.0196120  55.7164280  43.4450500
  31.6225490  56.2884490  43.9199020  30.2789110  56.2803720  43.2224400
  34.1630720  56.1185840  38.7190780  34.3581350  57.0169290  38.9858210
  33.3760590  55.8872920  39.2123730  22.3482480  57.4646610  37.7567090
  22.8775240  56.6776410  37.6275040  22.9810800  58.1437800  37.9902620
  24.5420320  57.2021750  40.8112480  23.9123060  56.5009060  40.9782610
  24.0025460  57.9625880  40.5945640  24.6675880  56.4805730  53.2464970
  24.3860150  56.9839330  52.4825790  25.0495580  55.6827480  52.8807100
  22.7199770  69.8646120  38.0378980  22.0908650  70.3331220  38.5864810
  22.8347600  69.0195340  38.4725170  31.2691340  55.8959310  53.8245440
  31.1556790  56.2153920  54.7196960  32.0861080  56.2971820  53.5282720
  30.1749490  63.9151780  24.1880180  30.0943540  63.0006390  23.9171890
  29.7613910  64.4118850  23.4819890  28.3067530  65.6930800  26.0689450
  27.5309630  65.2131240  26.3588020  28.9580460  65.0136450  25.8945610
  22.3233360  66.0050610  26.9465210  21.4918240  65.7499320  27.3461720
  22.9314340  66.0761380  27.6823130  32.3274960  70.0990990  24.8488580
  31.8656490  69.3278230  25.1775750  33.1400510  70.1257060  25.3541030
  22.3034620  70.0390700  27.1423230  22.6062660  69.1488440  26.9633450
  23.0478210  70.5960920  26.9145480  20.7325310  60.9652500  20.7307600
  19.8442010  61.3068470  20.6287480  21.0166500  60.7652820  19.8388430
  18.6958320  63.5658150  26.6147300  19.2674430  62.7980350  26.6150940
  18.6959860  63.8646910  25.7053910  27.7476520  68.3687990  26.0759610
  27.6784800  67.4277930  25.9148740  28.5096380  68.4589400  26.6482180
  19.9383190  58.9742510  28.4016230  19.7586030  58.0768260  28.6818990
  19.5363270  59.5214380  29.0763180  28.7781690  61.1758370  26.3028540
  29.1546510  60.3030250  26.1902210  28.6801200  61.5117070  25.4118980
  22.9086700  59.5484000  21.7645980  23.0153450  60.4487730  22.0714740
  21.9979060  59.5001970  21.4740630  32.5605810  58.6708810  23.2356880
  33.3815430  58.1805380  23.2782360  32.5939890  59.2606470  23.9888720
  20.5569860  61.4703010  27.0098570  21.2379970  61.7341380  27.6285970
  20.2417910  60.6303880  27.3436580  24.7494430  62.5170370  26.0971160
  25.2572650  63.0151340  26.7376180  25.2807670  61.7405570  25.9210520
  36.8505360  60.6875560  29.8000510  36.1457530  61.0757270  29.2815620
  37.1163280  61.3825850  30.4021440  23.0330530  57.1568930  30.3634580
  23.0348970  57.6741320  29.5580480  22.2034840  56.6799110  30.3404510
  29.4201620  67.2688240  21.8624480  28.8018890  67.7337690  21.2987200
  29.9324870  67.9615720  22.2793990  24.2833380  66.7964110  28.5408080
  23.9502760  67.4233030  29.1829150  24.4600060  67.3225990  27.7609750
  32.7967290  60.6109190  26.0084420  32.0922860  60.8994080  26.5887530
  33.1579450  61.4209300  25.6483980  22.7145860  58.8678890  28.3705030
  23.0562670  59.7120940  28.0758900  21.7761670  59.0162630  28.4870370
  23.4952480  68.7644910  30.3557260  24.1126480  69.4395990  30.0741710
  22.6345600  69.1732890  30.2644760  18.7884820  67.9544770  19.2364110
  18.4112800  68.4431870  18.5049010  19.0457890  68.6270050  19.8670640
  34.4130070  70.2284320  28.2711900  33.7293590  70.8983430  28.2628570
  34.9524360  70.4264970  27.5056760  35.8654210  60.0563980  26.3993630
  34.9179120  60.0902960  26.5309060  36.1904200  60.8702930  26.7842990
  26.3973750  56.3561160  24.6949620  26.7048730  55.8008050  23.9785120
  25.4674450  56.4905620  24.5122610  33.2434230  68.7944670  22.0747250
  33.1330560  67.8519000  22.1996670  33.2402480  69.1560310  22.9610010
  31.3474250  66.9758290  28.3139690  31.7643040  66.7618400  27.4793150
  32.0714070  67.2331080  28.8848310  28.7854510  64.4209990  21.4309740
  27.8583790  64.3547370  21.6598210  28.9379330  65.3590120  21.3164980
  28.7723590  60.6926990  18.4276900  27.8327260  60.8540950  18.5129360
  29.0906850  61.4112670  17.8812890  35.2936350  65.3745510  28.4055930
  34.4654980  65.4438600  27.9306060  35.8886830  65.9599820  27.9371760
  32.8151800  65.9830290  21.9344990  32.1964220  65.6449840  21.2871290
  32.7976250  65.3390050  22.6424180  32.2578360  62.1614830  29.3510800
  31.8449540  62.9868540  29.6050790  31.5254310  61.5759870  29.1587160
  24.3911150  64.9474730  24.2129470  23.9868150  64.2351980  23.7175370
  24.4774270  64.6027970  25.1017510  24.8592850  68.6342290  26.3768680
  24.5621140  68.0287760  25.6976460  25.8092670  68.6719600  26.2658040
  23.1039770  61.7217940  27.9928510  23.6554360  61.8313280  27.2181760
  23.6183280  62.0955540  28.7083740  23.9511280  68.3723980  33.0276480
  23.0539810  68.5963950  33.2749880  23.9764150  68.4958920  32.0787880
  30.9916500  65.2217100  18.9417740  31.4309780  64.3839530  18.7955560
  31.7044920  65.8546500  19.0281880  22.7782500  65.2437300  31.6033850
  22.6390270  66.1160100  31.9721250  21.8963860  64.9010110  31.4581790
  29.1011880  70.1613170  22.9098980  29.5407790  70.9037500  22.4954370
  29.0398770  70.4039740  23.8337940  24.5762850  71.1859000  33.8119000
  24.5478280  71.5901950  32.9447430  24.4127820  70.2569360  33.6490600
  34.5733640  56.4759910  17.2558780  34.2606300  56.5686740  18.1557850
  35.3346110  57.0540940  17.2056210  21.0915780  63.8419710  21.7136120
  20.9713380  64.5681800  21.1017390  20.7816670  63.0722620  21.2364030
  18.7301150  67.0134850  27.5204760  18.8081570  67.1483620  26.5760480
  19.3442830  66.3050740  27.7132880  19.9748780  68.7135040  23.9310940
  19.5676860  68.8549630  23.0764540  20.8661790  68.4295200  23.7282150
  35.9310920  69.1598950  32.2683180  36.0573980  68.9210830  31.3500360
  35.9732300  68.3283490  32.7405260  31.4708190  70.6569850  18.8259990
  30.7773350  70.6547140  18.1662270  32.2131050  70.2329170  18.3954160
  35.7834930  61.2131410  33.2332920  35.1679200  61.7211080  32.7048380
  35.4631350  60.3129740  33.1758860  18.7860670  68.0549020  30.0599220
  18.9491710  67.5854380  29.2418590  19.2513120  67.5472580  30.7248060
  23.5579440  57.1854780  25.0959790  23.1147590  57.9664320  24.7644310
  24.1164430  57.5084670  25.8030730  27.8449250  60.0523300  30.6995110
  27.3828620  60.2606320  31.5115050  27.4427360  59.2382650  30.3965780
  32.8453760  61.2732250  31.8291770  31.9947350  60.9738000  32.1500840
  32.6855550  61.5174260  30.9175590  29.9403470  62.7734000  33.9290560
  30.2656880  61.9397750  33.5892790  30.7283800  63.2962520  34.0768890
  26.6738260  56.8065480  19.9765620  26.0492440  56.8025350  20.7018930
  26.5868380  55.9396440  19.5801590  25.5955340  57.7302110  26.9549390
  25.8927670  58.6364940  26.8741410  26.1440900  57.2420890  26.3408960
  23.3493660  62.3088350  22.8241040  23.1234580  62.0925520  23.7287660
  22.5686190  62.7416810  22.4787010  30.5791420  62.3151720  21.4231690
  29.9800310  63.0387520  21.2395310  31.1271030  62.2528500  20.6408140
  25.7892870  63.2073930  33.4901310  25.6936470  62.2668660  33.3401710
  26.6324850  63.4289000  33.0949380  29.1856290  60.9515260  23.4534970
  29.5785860  61.2687460  22.6403660  29.5473140  60.0727140  23.5679490
  20.9203410  59.6187600  31.6435090  20.5266800  60.4662810  31.8507870
  20.2321810  58.9813970  31.8343730  27.4948460  59.7022570  34.7131830
  26.8046780  59.5094770  35.3477920  28.2380760  59.9857210  35.2456130
  18.2220460  57.5416060  25.6765170  17.9333510  58.1118920  26.3890150
  18.9666220  57.0620510  26.0396400  18.4090690  61.4836180  16.8867890
  18.3265360  62.4266940  17.0282880  18.0573750  61.3411090  16.0080240
  29.7711430  63.5421010  27.5485750  29.0392550  64.0507820  27.8975850
  29.3735770  62.7250990  27.2474530  26.2088820  60.2175210  25.9538240
  26.2124880  59.7765160  25.1042780  27.1039940  60.5392540  26.0610060
  22.0591200  60.1001700  24.9132450  21.7191250  60.5776930  25.6699500
  21.2968520  59.6466820  24.5533550  26.2708970  61.2187290  18.9445000
  26.3921790  61.1773770  19.8930820  25.8857480  62.0811440  18.7891730
  30.2337340  58.9954690  26.9608690  30.2510080  59.4463340  27.8050540
  29.9852920  58.0960330  27.1742130  25.2830470  63.5288430  18.3428300
  24.7147370  63.0806680  17.7164210  25.9919470  63.8881210  17.8093450
  33.6608090  56.4086870  32.7995070  33.9853860  55.6776530  33.3253050
  33.6964600  56.0900510  31.8976060  20.3599650  67.4300450  32.2195030
  19.9754440  66.7894120  32.8177990  20.6711840  68.1336570  32.7889760
  26.5096790  64.2776990  27.7003650  26.8766920  63.8035560  28.4464990
  26.3201850  65.1518560  28.0411990  19.3737280  59.0220680  23.8297120
  19.0884200  58.6576350  24.6675740  19.3116140  58.2901140  23.2160260
  24.2996160  63.3185630  30.0187860  23.9953230  64.1977610  30.2438220
  25.2542620  63.3785420  30.0545300  22.8277950  67.5246620  20.6154710
  22.0540210  66.9844240  20.4553430  23.5572580  67.0053230  20.2772470
  33.5865930  66.5211980  26.4081100  34.3065050  67.0167270  26.0177210
  33.3847750  65.8429870  25.7634970  29.0475870  57.9149940  20.5510490
  28.2340480  57.4163110  20.4755800  28.8537820  58.7548190  20.1346840
  28.9684730  66.5921040  32.2950100  28.9022040  65.6716710  32.0407690
  28.3389870  66.6896480  33.0094740  31.7624260  62.2869590  18.8472650
  32.6503880  62.5986820  18.6723990  31.7329350  61.4141840  18.4553230
  22.8715350  67.1927000  24.2533520  23.3894020  66.3895260  24.1990410
  22.4199370  67.1306140  25.0950350  27.7584850  68.4593280  19.5260820
  28.1000550  69.2035510  19.0304140  26.9297560  68.7724400  19.8885650
  20.3559890  64.1588370  31.1659220  19.9974830  64.8242220  31.7532560
  20.0614450  63.3271920  31.5371840  23.5573010  64.6172610  34.0498770
  23.2573150  64.7629790  33.1526590  24.3284250  64.0577900  33.9572160
  28.9001460  69.4141610  32.0453900  28.9146000  68.4822570  31.8272810
  28.1926560  69.5001370  32.6843670  34.0338530  63.5981430  18.3152510
  33.9502250  64.0295650  17.4648950  34.7532720  64.0579780  18.7479330
  35.1112670  66.0548950  31.3922480  34.3860860  66.6477730  31.1951870
  35.6388130  66.0472490  30.5935850  35.0625780  70.4523690  21.0434640
  34.4201940  69.7979310  21.3178360  34.6756440  70.8578780  20.2675310
  30.6412260  67.7809120  24.8906330  30.9936080  67.1837250  24.2307700
  29.7574590  67.4553350  25.0614580  26.7275540  68.5406810  22.2976740
  27.4146670  69.0876020  22.6784330  25.9407960  69.0847540  22.3326350
  18.8667940  64.1579630  17.7893820  19.7362790  64.4404430  18.0729740
  18.3758260  64.9715500  17.6742630  26.0302750  65.5452840  21.9102100
  26.4865530  66.3558090  22.1362290  25.6790960  65.2275980  22.7420590
  28.3335360  71.0559180  29.1394400  28.9777580  71.2618560  29.8167820
  28.6964800  70.2947580  28.6865250  21.9314530  55.8890490  22.3824620
  21.8029160  55.8808390  23.3309540  21.1076550  56.2273580  22.0315630
  29.6067440  69.0591530  27.8571850  30.2489670  68.3584690  27.9704020
  30.1316790  69.8389970  27.6768740  33.4523160  69.3440150  17.5810990
  33.2260740  68.6270590  18.1735630  33.0619360  69.0952590  16.7432740
  31.3805060  69.8586430  31.0607910  31.7161300  70.4453120  31.7385830
  30.4605400  69.7279140  31.2905700  18.9308460  57.6481610  31.8431320
  18.2166980  57.8478530  32.4483930  19.3503500  56.8721180  32.2146120
  33.0339410  67.2612090  19.2425150  32.7461110  67.7224780  20.0303030
  33.8291580  66.8009860  19.5109370  27.2093640  69.9077760  34.2295970
  26.8890510  69.1887000  34.7741660  26.5352000  70.5832830  34.3032030
  25.2507810  70.7538210  19.1729120  25.2417910  71.4867900  18.5573630
  24.3306170  70.5069790  19.2656080  20.8514450  65.9753100  19.9175880
  20.2442400  66.7152000  19.9271180  21.3263800  66.0652460  19.0914080
  30.4247240  60.1403920  29.5932770  30.7928060  59.3199130  29.9212340
  29.5645440  60.2005810  30.0088420  33.7909270  59.0960860  20.4020330
  33.1622430  59.2006530  19.6878560  33.2961190  59.3157640  21.1914210
  28.2367410  70.8166450  17.8354310  28.3379390  70.6130440  16.9056290
  27.3369150  70.5624730  18.0402090  25.7593300  61.3746810  21.8178210
  25.0509450  61.8433150  22.2591820  26.0437780  60.7168820  22.4523400
  27.3849230  62.7943510  29.8170740  27.8834480  63.2689330  30.4822590
  27.5272180  61.8707030  30.0240770  29.7908730  58.0997470  23.2574000
  29.6676510  58.1183600  22.3083510  30.7393290  58.1476410  23.3772400
  23.9628320  59.6831890  19.1928920  24.8118850  60.1202040  19.1269110
  23.5959590  59.9952150  20.0200980  34.5916090  59.0111470  30.6599130
  34.0889690  59.7516870  30.9992940  35.4072750  59.3995470  30.3435920
  32.8838100  64.2544650  24.1060490  31.9428240  64.2694880  24.2808180
  33.1982170  63.4680610  24.5520790  22.8619740  65.9364250  17.6664450
  23.6283010  65.8245610  18.2289880  22.9394430  65.2402220  17.0141220
  21.5566500  63.3689320  18.3497340  21.6370090  62.4216830  18.4614740
  22.4486250  63.6996200  18.4558000  19.2426690  69.5858280  21.3273390
  18.3166470  69.8279420  21.3178800  19.7083120  70.4132540  21.2058140
  30.2004120  68.8110650  34.5892870  29.5942280  68.8342250  33.8488620
  29.8958230  68.0793690  35.1260120  19.0837300  65.1904240  33.5853510
  19.5876320  64.6111520  34.1569740  18.3444720  65.4744470  34.1229880
  25.9860920  67.9118430  17.1399800  25.8811560  67.2970780  17.8661180
  25.8185140  67.3884320  16.3562810  26.1375240  66.5975230  33.1189030
  25.3720910  67.1660230  33.0343700  26.3191200  66.3051440  32.2257260
  29.2263650  66.9738460  17.7441790  28.6773750  67.4207760  18.3884530
  29.8482910  66.4687710  18.2679460  33.2798590  68.3280560  33.6764050
  34.0208060  68.6656320  33.1731510  32.5171270  68.4972620  33.1233820
  21.1160380  63.3333830  34.4803580  21.1565720  63.0347700  35.3888810
  21.9705880  63.7341440  34.3211100  24.8938770  65.9329380  19.6407090
  25.3155190  65.7669250  20.4838480  25.0189610  65.1229610  19.1462230
  23.0566190  61.9125930  32.4478070  22.5262650  61.4216880  31.8201410
  23.7254260  62.3410130  31.9136000  27.4066410  64.9566990  16.8884190
  27.9272070  64.2416010  16.5225340  28.0534810  65.5952860  17.1884700
  31.9544250  66.3795390  32.2119260  32.3685270  66.5340470  33.0609680
  31.0195250  66.5050610  32.3745040  32.4266420  63.7191550  34.2158410
  33.0087190  62.9643870  34.1278890  32.6028190  64.2498990  33.4389890
  23.5438490  58.8788300  32.5275360  23.4495360  58.2609050  31.8026230
  22.9635880  59.6054590  32.3005270  26.3099930  57.4361540  29.5602750
  25.8617230  57.4585800  28.7148300  25.6765130  57.0380560  30.1573050
  26.7159480  66.3315870  30.1815190  27.1347590  67.1748600  30.0091430
  25.7968110  66.4687910  29.9521970  29.0523380  64.0632050  31.5653030
  29.1719590  63.4673190  32.3047870  29.9117380  64.1001740  31.1454330
  31.3911280  64.6169240  30.1415540  30.8646500  65.1411860  29.5380680
  31.7342620  65.2496630  30.7725270  23.7897670  62.0062610  16.5865250
  23.5886730  61.1429970  16.9478590  23.6189720  61.9195970  15.6486850
  25.8192150  60.6053400  32.8228850  26.4091840  60.2969250  33.5106670
  25.0012390  60.1333150  32.9788750  30.6385580  60.2219210  33.0561870
  29.9501100  59.5600750  32.9911860  31.3591600  59.7757480  33.5010330
  31.2685980  56.8170840  19.1152130  31.5488270  55.9738740  19.4711550
  30.4951710  57.0493950  19.6290880  22.5880470  59.1063230  16.5743130
  22.8906370  59.1130660  15.6662280  23.3275060  58.7561090  17.0710790
  25.8065400  58.0497850  17.5599330  25.4587400  57.3721840  16.9801780
  26.0078170  57.5887360  18.3742720  21.6110600  68.4105650  17.4072930
  22.0485470  68.9535320  18.0630510  22.0958330  67.5852600  17.4169270
  18.8256400  71.1994680  24.8593190  19.1559410  70.3315740  24.6271830
  19.2547400  71.4053200  25.6898150  23.4218320  69.5303690  22.5195160
  23.1213860  69.4068660  23.4199070  23.3155810  68.6712280  22.1110890
  34.9508790  71.5682270  31.8852130  34.3510780  71.6274830  31.1416050
  35.0802690  70.6287250  32.0148980  36.1910240  69.3100090  17.2221840
  35.3603200  69.3776740  17.6929070  36.3682070  70.2004210  16.9188700
  35.6466700  66.0547570  19.7256040  36.4085610  66.6244220  19.8315730
  35.6621070  65.4874770  20.4964350  19.1471040  64.5785500  23.9563700
  18.4919880  64.3097140  23.3123400  19.9848990  64.4689980  23.5065680
  36.6526670  66.9097670  24.5697970  37.0235500  66.1264990  24.1633940
  37.2928600  67.5986770  24.3915270  33.6360430  68.2934250  29.9828290
  32.8220270  68.7231410  30.2454080  34.0434630  68.9052660  29.3697340
  35.6985870  66.3481940  16.8828560  35.9734710  67.2560820  16.7547780
  35.5096610  66.2844470  17.8190550  32.0961480  59.3726790  18.1782190
  32.5146360  59.1857770  17.3378850  31.7897540  58.5205840  18.4885120
  35.5951210  64.2850930  21.8757990  35.2194810  63.5178860  21.4439280
  34.8654330  64.6673630  22.3632920  20.1846970  64.9638070  28.4967040
  20.5520010  64.8765470  29.3763060  19.6157790  64.2004620  28.3973900
  34.9850830  63.4322450  31.5097510  34.7536920  63.2035200  30.6095460
  35.2455380  64.3522000  31.4642400  19.7362970  61.8747160  32.4025460
  18.8419020  61.8413920  32.7419170  20.2760520  62.0733950  33.1676710
  33.4238900  58.6578880  34.2877210  34.3009080  58.6662280  34.6711210
  33.4359740  57.9209720  33.6769560  18.3609120  61.7884430  19.8989030
  17.4573200  62.0514630  19.7240690  18.8449740  62.0595600  19.1188990
  34.8702170  62.5108420  25.1765230  35.3939650  62.0171070  24.5455400
  35.4561590  62.6458780  25.9212800  35.0491890  62.5948290  28.6984780
  34.0994600  62.5611830  28.8129770  35.2304900  63.5048400  28.4634550
  20.9036330  60.8449970  17.8083410  21.6128030  60.4233190  17.3230690
  20.1876270  60.9125200  17.1766760  20.5510490  56.8989300  16.8486060
  21.2738620  57.4398240  17.1667280  20.8235010  56.6252720  15.9727600
  34.3602140  61.7681770  21.1157640  34.8561260  61.5352640  21.9006520
  34.1618210  60.9293610  20.6995280  20.2402680  56.1495490  26.7508680
  20.8878870  55.5992870  26.3103840  20.6604520  56.4038640  27.5724490
  35.7889300  60.4042720  23.6495320  35.6788580  60.2498760  24.5877590
  36.5496890  59.8763660  23.4070730  34.1355020  56.3436850  30.1078320
  34.7727240  56.9570990  30.4737510  34.2829910  56.3797510  29.1627550
  36.6779570  58.2350640  16.8901460  37.6028880  58.1031820  16.6819750
  36.6555360  58.3143460  17.8437910  36.7518060  59.0061300  19.5158170
  35.9569560  58.9406420  20.0451080  36.9561340  59.9411940  19.5043520
  19.9934680  56.3051160  29.4934000  19.6449500  56.7614980  30.2592180
  19.6622380  55.4108290  29.5756430  21.5999050  69.4770760  33.6587190
  21.5568680  69.1063670  34.5401650  21.7310060  70.4148330  33.7989010
  25.3005080  71.0330350  29.2596910  25.0596440  71.3004910  28.3727430
  26.2407720  71.2036080  29.3147770  27.5059500  57.4963040  33.0153420
  27.4448390  58.0884870  33.7648830  28.4459880  57.3889000  32.8703680
  30.1434060  57.1533100  32.6545710  30.7574470  57.4712390  31.9926790
  30.6883620  56.6681690  33.2741570  20.6655320  55.8327360  32.7684770
  21.2138310  55.6515410  32.0050880  20.7310630  55.0421470  33.3041080
  30.8842100  55.7165240  28.9815000  30.0101940  56.0500350  28.7787930
  30.7752850  55.2438420  29.8066870  31.7914080  57.9236110  30.3656720
  31.4627440  57.1087870  29.9858450  32.7396380  57.8805920  30.2422410
  21.0699310  69.7891390  29.7293010  20.3433370  69.1696680  29.6618960
  21.1308460  70.1832000  28.8591090  28.6316920  56.6335080  27.9207910
  27.8488710  57.1080580  28.2004670  28.3379850  55.7289910  27.8121090
  33.1837990  57.3358180  25.9657000  33.6246080  57.2803280  25.1178600
  32.9145580  58.2516190  26.0367180  35.0476560  56.9673420  23.9765820
  34.9864960  56.0234640  23.8296840  35.8268590  57.0753510  24.5219280
  19.9757330  56.9382560  20.4421630  20.7336690  57.0511440  19.8685660
  19.5134500  57.7751760  20.3965060  26.5171140  59.0521830  23.4323940
  25.7045650  58.6778720  23.0919820  27.0212780  58.2966910  23.7345130
  31.0196120  55.7164280  24.6707010  31.6225490  56.2884490  25.1455530
  30.2789110  56.2803720  24.4480910  34.1630720  56.1185840  19.9447290
  34.3581350  57.0169290  20.2114720  33.3760590  55.8872920  20.4380240
  22.3482480  57.4646610  18.9823600  22.8775240  56.6776410  18.8531550
  22.9810800  58.1437800  19.2159130  24.5420320  57.2021750  22.0368990
  23.9123060  56.5009060  22.2039120  24.0025460  57.9625880  21.8202150
  24.6675880  56.4805730  34.4721480  24.3860150  56.9839330  33.7082300
  25.0495580  55.6827480  34.1063610  22.7199770  69.8646120  19.2635490
  22.0908650  70.3331220  19.8121320  22.8347600  69.0195340  19.6981680
  31.2691340  55.8959310  35.0501950  31.1556790  56.2153920  35.9453470
  32.0861080  56.2971820  34.7539230  30.1749490  63.9151780   5.4136690
  30.0943540  63.0006390   5.1428400  29.7613910  64.4118850   4.7076400
  28.3067530  65.6930800   7.2945960  27.5309630  65.2131240   7.5844530
  28.9580460  65.0136450   7.1202120  22.3233360  66.0050610   8.1721720
  21.4918240  65.7499320   8.5718230  22.9314340  66.0761380   8.9079640
  32.3274960  70.0990990   6.0745090  31.8656490  69.3278230   6.4032260
  33.1400510  70.1257060   6.5797540  22.3034620  70.0390700   8.3679740
  22.6062660  69.1488440   8.1889960  23.0478210  70.5960920   8.1401990
  18.6958320  63.5658150   7.8403810  19.2674430  62.7980350   7.8407450
  18.6959860  63.8646910   6.9310420  27.7476520  68.3687990   7.3016120
  27.6784800  67.4277930   7.1405250  28.5096380  68.4589400   7.8738690
  19.9383190  58.9742510   9.6272740  19.7586030  58.0768260   9.9075500
  19.5363270  59.5214380  10.3019690  28.7781690  61.1758370   7.5285050
  29.1546510  60.3030250   7.4158720  28.6801200  61.5117070   6.6375490
  22.9086700  59.5484000   2.9902490  23.0153450  60.4487730   3.2971250
  21.9979060  59.5001970   2.6997140  32.5605810  58.6708810   4.4613390
  33.3815430  58.1805380   4.5038870  32.5939890  59.2606470   5.2145230
  20.5569860  61.4703010   8.2355080  21.2379970  61.7341380   8.8542480
  20.2417910  60.6303880   8.5693090  24.7494430  62.5170370   7.3227670
  25.2572650  63.0151340   7.9632690  25.2807670  61.7405570   7.1467030
  36.8505360  60.6875560  11.0257020  36.1457530  61.0757270  10.5072130
  37.1163280  61.3825850  11.6277950  23.0330530  57.1568930  11.5891090
  23.0348970  57.6741320  10.7836990  22.2034840  56.6799110  11.5661020
  29.4201620  67.2688240   3.0880990  28.8018890  67.7337690   2.5243710
  29.9324870  67.9615720   3.5050500  24.2833380  66.7964110   9.7664590
  23.9502760  67.4233030  10.4085660  24.4600060  67.3225990   8.9866260
  32.7967290  60.6109190   7.2340930  32.0922860  60.8994080   7.8144040
  33.1579450  61.4209300   6.8740490  22.7145860  58.8678890   9.5961540
  23.0562670  59.7120940   9.3015410  21.7761670  59.0162630   9.7126880
  23.4952480  68.7644910  11.5813770  24.1126480  69.4395990  11.2998220
  22.6345600  69.1732890  11.4901270  34.4130070  70.2284320   9.4968410
  33.7293590  70.8983430   9.4885080  34.9524360  70.4264970   8.7313270
  35.8654210  60.0563980   7.6250140  34.9179120  60.0902960   7.7565570
  36.1904200  60.8702930   8.0099500  26.3973750  56.3561160   5.9206130
  26.7048730  55.8008050   5.2041630  25.4674450  56.4905620   5.7379120
  33.2434230  68.7944670   3.3003760  33.1330560  67.8519000   3.4253180
  33.2402480  69.1560310   4.1866520  31.3474250  66.9758290   9.5396200
  31.7643040  66.7618400   8.7049660  32.0714070  67.2331080  10.1104820
  28.7854510  64.4209990   2.6566250  27.8583790  64.3547370   2.8854720
  28.9379330  65.3590120   2.5421490  35.2936350  65.3745510   9.6312440
  34.4654980  65.4438600   9.1562570  35.8886830  65.9599820   9.1628270
  32.8151800  65.9830290   3.1601500  32.1964220  65.6449840   2.5127800
  32.7976250  65.3390050   3.8680690  32.2578360  62.1614830  10.5767310
  31.8449540  62.9868540  10.8307300  31.5254310  61.5759870  10.3843670
  24.3911150  64.9474730   5.4385980  23.9868150  64.2351980   4.9431880
  24.4774270  64.6027970   6.3274020  24.8592850  68.6342290   7.6025190
  24.5621140  68.0287760   6.9232970  25.8092670  68.6719600   7.4914550
  23.1039770  61.7217940   9.2185020  23.6554360  61.8313280   8.4438270
  23.6183280  62.0955540   9.9340250  23.9511280  68.3723980  14.2532990
  23.0539810  68.5963950  14.5006390  23.9764150  68.4958920  13.3044390
  22.7782500  65.2437300  12.8290360  22.6390270  66.1160100  13.1977760
  21.8963860  64.9010110  12.6838300  29.1011880  70.1613170   4.1355490
  29.5407790  70.9037500   3.7210880  29.0398770  70.4039740   5.0594450
  24.5762850  71.1859000  15.0375510  24.5478280  71.5901950  14.1703940
  24.4127820  70.2569360  14.8747110  21.0915780  63.8419710   2.9392630
  20.9713380  64.5681800   2.3273900  20.7816670  63.0722620   2.4620540
  18.7301150  67.0134850   8.7461270  18.8081570  67.1483620   7.8016990
  19.3442830  66.3050740   8.9389390  19.9748780  68.7135040   5.1567450
  19.5676860  68.8549630   4.3021050  20.8661790  68.4295200   4.9538660
  35.9310920  69.1598950  13.4939690  36.0573980  68.9210830  12.5756870
  35.9732300  68.3283490  13.9661770  35.7834930  61.2131410  14.4589430
  35.1679200  61.7211080  13.9304890  35.4631350  60.3129740  14.4015370
  18.7860670  68.0549020  11.2855730  18.9491710  67.5854380  10.4675100
  19.2513120  67.5472580  11.9504570  23.5579440  57.1854780   6.3216300
  23.1147590  57.9664320   5.9900820  24.1164430  57.5084670   7.0287240
  27.8449250  60.0523300  11.9251620  27.3828620  60.2606320  12.7371560
  27.4427360  59.2382650  11.6222290  32.8453760  61.2732250  13.0548280
  31.9947350  60.9738000  13.3757350  32.6855550  61.5174260  12.1432100
  29.9403470  62.7734000  15.1547070  30.2656880  61.9397750  14.8149300
  30.7283800  63.2962520  15.3025400  25.5955340  57.7302110   8.1805900
  25.8927670  58.6364940   8.0997920  26.1440900  57.2420890   7.5665470
  23.3493660  62.3088350   4.0497550  23.1234580  62.0925520   4.9544170
  22.5686190  62.7416810   3.7043520  30.5791420  62.3151720   2.6488200
  29.9800310  63.0387520   2.4651820  31.1271030  62.2528500   1.8664650
  25.7892870  63.2073930  14.7157820  25.6936470  62.2668660  14.5658220
  26.6324850  63.4289000  14.3205890  29.1856290  60.9515260   4.6791480
  29.5785860  61.2687460   3.8660170  29.5473140  60.0727140   4.7936000
  20.9203410  59.6187600  12.8691600  20.5266800  60.4662810  13.0764380
  20.2321810  58.9813970  13.0600240  27.4948460  59.7022570  15.9388340
  26.8046780  59.5094770  16.5734430  28.2380760  59.9857210  16.4712640
  18.2220460  57.5416060   6.9021680  17.9333510  58.1118920   7.6146660
  18.9666220  57.0620510   7.2652910  29.7711430  63.5421010   8.7742260
  29.0392550  64.0507820   9.1232360  29.3735770  62.7250990   8.4731040
  26.2088820  60.2175210   7.1794750  26.2124880  59.7765160   6.3299290
  27.1039940  60.5392540   7.2866570  22.0591200  60.1001700   6.1388960
  21.7191250  60.5776930   6.8956010  21.2968520  59.6466820   5.7790060
  30.2337340  58.9954690   8.1865200  30.2510080  59.4463340   9.0307050
  29.9852920  58.0960330   8.3998640  33.6608090  56.4086870  14.0251580
  33.9853860  55.6776530  14.5509560  33.6964600  56.0900510  13.1232570
  20.3599650  67.4300450  13.4451540  19.9754440  66.7894120  14.0434500
  20.6711840  68.1336570  14.0146270  26.5096790  64.2776990   8.9260160
  26.8766920  63.8035560   9.6721500  26.3201850  65.1518560   9.2668500
  19.3737280  59.0220680   5.0553630  19.0884200  58.6576350   5.8932250
  19.3116140  58.2901140   4.4416770  24.2996160  63.3185630  11.2444370
  23.9953230  64.1977610  11.4694730  25.2542620  63.3785420  11.2801810
  22.8277950  67.5246620   1.8411220  22.0540210  66.9844240   1.6809940
  23.5572580  67.0053230   1.5028980  33.5865930  66.5211980   7.6337610
  34.3065050  67.0167270   7.2433720  33.3847750  65.8429870   6.9891480
  29.0475870  57.9149940   1.7767000  28.2340480  57.4163110   1.7012310
  28.8537820  58.7548190   1.3603350  28.9684730  66.5921040  13.5206610
  28.9022040  65.6716710  13.2664200  28.3389870  66.6896480  14.2351250
  22.8715350  67.1927000   5.4790030  23.3894020  66.3895260   5.4246920
  22.4199370  67.1306140   6.3206860  20.3559890  64.1588370  12.3915730
  19.9974830  64.8242220  12.9789070  20.0614450  63.3271920  12.7628350
  23.5573010  64.6172610  15.2755280  23.2573150  64.7629790  14.3783100
  24.3284250  64.0577900  15.1828670  28.9001460  69.4141610  13.2710410
  28.9146000  68.4822570  13.0529320  28.1926560  69.5001370  13.9100180
  35.1112670  66.0548950  12.6178990  34.3860860  66.6477730  12.4208380
  35.6388130  66.0472490  11.8192360  35.0625780  70.4523690   2.2691150
  34.4201940  69.7979310   2.5434870  34.6756440  70.8578780   1.4931820
  30.6412260  67.7809120   6.1162840  30.9936080  67.1837250   5.4564210
  29.7574590  67.4553350   6.2871090  26.7275540  68.5406810   3.5233250
  27.4146670  69.0876020   3.9040840  25.9407960  69.0847540   3.5582860
  26.0302750  65.5452840   3.1358610  26.4865530  66.3558090   3.3618800
  25.6790960  65.2275980   3.9677100  28.3335360  71.0559180  10.3650910
  28.9777580  71.2618560  11.0424330  28.6964800  70.2947580   9.9121760
  21.9314530  55.8890490   3.6081130  21.8029160  55.8808390   4.5566050
  21.1076550  56.2273580   3.2572140  29.6067440  69.0591530   9.0828360
  30.2489670  68.3584690   9.1960530  30.1316790  69.8389970   8.9025250
  31.3805060  69.8586430  12.2864420  31.7161300  70.4453120  12.9642340
  30.4605400  69.7279140  12.5162210  18.9308460  57.6481610  13.0687830
  18.2166980  57.8478530  13.6740440  19.3503500  56.8721180  13.4402630
  27.2093640  69.9077760  15.4552480  26.8890510  69.1887000  15.9998170
  26.5352000  70.5832830  15.5288540  30.4247240  60.1403920  10.8189280
  30.7928060  59.3199130  11.1468850  29.5645440  60.2005810  11.2344930
  25.7593300  61.3746810   3.0434720  25.0509450  61.8433150   3.4848330
  26.0437780  60.7168820   3.6779910  27.3849230  62.7943510  11.0427250
  27.8834480  63.2689330  11.7079100  27.5272180  61.8707030  11.2497280
  29.7908730  58.0997470   4.4830510  29.6676510  58.1183600   3.5340020
  30.7393290  58.1476410   4.6028910  34.5916090  59.0111470  11.8855640
  34.0889690  59.7516870  12.2249450  35.4072750  59.3995470  11.5692430
  32.8838100  64.2544650   5.3317000  31.9428240  64.2694880   5.5064690
  33.1982170  63.4680610   5.7777300  19.2426690  69.5858280   2.5529900
  18.3166470  69.8279420   2.5435310  19.7083120  70.4132540   2.4314650
  30.2004120  68.8110650  15.8149380  29.5942280  68.8342250  15.0745130
  29.8958230  68.0793690  16.3516630  19.0837300  65.1904240  14.8110020
  19.5876320  64.6111520  15.3826250  18.3444720  65.4744470  15.3486390
  26.1375240  66.5975230  14.3445540  25.3720910  67.1660230  14.2600210
  26.3191200  66.3051440  13.4513770  33.2798590  68.3280560  14.9020560
  34.0208060  68.6656320  14.3988020  32.5171270  68.4972620  14.3490330
  21.1160380  63.3333830  15.7060090  21.1565720  63.0347700  16.6145320
  21.9705880  63.7341440  15.5467610  23.0566190  61.9125930  13.6734580
  22.5262650  61.4216880  13.0457920  23.7254260  62.3410130  13.1392510
  31.9544250  66.3795390  13.4375770  32.3685270  66.5340470  14.2866190
  31.0195250  66.5050610  13.6001550  32.4266420  63.7191550  15.4414920
  33.0087190  62.9643870  15.3535400  32.6028190  64.2498990  14.6646400
  23.5438490  58.8788300  13.7531870  23.4495360  58.2609050  13.0282740
  22.9635880  59.6054590  13.5261780  26.3099930  57.4361540  10.7859260
  25.8617230  57.4585800   9.9404810  25.6765130  57.0380560  11.3829560
  26.7159480  66.3315870  11.4071700  27.1347590  67.1748600  11.2347940
  25.7968110  66.4687910  11.1778480  29.0523380  64.0632050  12.7909540
  29.1719590  63.4673190  13.5304380  29.9117380  64.1001740  12.3710840
  31.3911280  64.6169240  11.3672050  30.8646500  65.1411860  10.7637190
  31.7342620  65.2496630  11.9981780  25.8192150  60.6053400  14.0485360
  26.4091840  60.2969250  14.7363180  25.0012390  60.1333150  14.2045260
  30.6385580  60.2219210  14.2818380  29.9501100  59.5600750  14.2168370
  31.3591600  59.7757480  14.7266840  18.8256400  71.1994680   6.0849700
  19.1559410  70.3315740   5.8528340  19.2547400  71.4053200   6.9154660
  23.4218320  69.5303690   3.7451670  23.1213860  69.4068660   4.6455580
  23.3155810  68.6712280   3.3367400  34.9508790  71.5682270  13.1108640
  34.3510780  71.6274830  12.3672560  35.0802690  70.6287250  13.2405490
  19.1471040  64.5785500   5.1820210  18.4919880  64.3097140   4.5379910
  19.9848990  64.4689980   4.7322190  36.6526670  66.9097670   5.7954480
  37.0235500  66.1264990   5.3890450  37.2928600  67.5986770   5.6171780
  33.6360430  68.2934250  11.2084800  32.8220270  68.7231410  11.4710590
  34.0434630  68.9052660  10.5953850  35.5951210  64.2850930   3.1014500
  35.2194810  63.5178860   2.6695790  34.8654330  64.6673630   3.5889430
  20.1846970  64.9638070   9.7223550  20.5520010  64.8765470  10.6019570
  19.6157790  64.2004620   9.6230410  34.9850830  63.4322450  12.7354020
  34.7536920  63.2035200  11.8351970  35.2455380  64.3522000  12.6898910
  19.7362970  61.8747160  13.6281970  18.8419020  61.8413920  13.9675680
  20.2760520  62.0733950  14.3933220  33.4238900  58.6578880  15.5133720
  34.3009080  58.6662280  15.8967720  33.4359740  57.9209720  14.9026070
  34.8702170  62.5108420   6.4021740  35.3939650  62.0171070   5.7711910
  35.4561590  62.6458780   7.1469310  35.0491890  62.5948290   9.9241290
  34.0994600  62.5611830  10.0386280  35.2304900  63.5048400   9.6891060
  34.3602140  61.7681770   2.3414150  34.8561260  61.5352640   3.1263030
  34.1618210  60.9293610   1.9251790  20.2402680  56.1495490   7.9765190
  20.8878870  55.5992870   7.5360350  20.6604520  56.4038640   8.7981000
  35.7889300  60.4042720   4.8751830  35.6788580  60.2498760   5.8134100
  36.5496890  59.8763660   4.6327240  34.1355020  56.3436850  11.3334830
  34.7727240  56.9570990  11.6994020  34.2829910  56.3797510  10.3884060
  19.9934680  56.3051160  10.7190510  19.6449500  56.7614980  11.4848690
  19.6622380  55.4108290  10.8012940  21.5999050  69.4770760  14.8843700
  21.5568680  69.1063670  15.7658160  21.7310060  70.4148330  15.0245520
  25.3005080  71.0330350  10.4853420  25.0596440  71.3004910   9.5983940
  26.2407720  71.2036080  10.5404280  27.5059500  57.4963040  14.2409930
  27.4448390  58.0884870  14.9905340  28.4459880  57.3889000  14.0960190
  30.1434060  57.1533100  13.8802220  30.7574470  57.4712390  13.2183300
  30.6883620  56.6681690  14.4998080  20.6655320  55.8327360  13.9941280
  21.2138310  55.6515410  13.2307390  20.7310630  55.0421470  14.5297590
  30.8842100  55.7165240  10.2071510  30.0101940  56.0500350  10.0044440
  30.7752850  55.2438420  11.0323380  31.7914080  57.9236110  11.5913230
  31.4627440  57.1087870  11.2114960  32.7396380  57.8805920  11.4678920
  21.0699310  69.7891390  10.9549520  20.3433370  69.1696680  10.8875470
  21.1308460  70.1832000  10.0847600  28.6316920  56.6335080   9.1464420
  27.8488710  57.1080580   9.4261180  28.3379850  55.7289910   9.0377600
  33.1837990  57.3358180   7.1913510  33.6246080  57.2803280   6.3435110
  32.9145580  58.2516190   7.2623690  35.0476560  56.9673420   5.2022330
  34.9864960  56.0234640   5.0553350  35.8268590  57.0753510   5.7475790
  26.5171140  59.0521830   4.6580450  25.7045650  58.6778720   4.3176330
  27.0212780  58.2966910   4.9601640  31.0196120  55.7164280   5.8963520
  31.6225490  56.2884490   6.3712040  30.2789110  56.2803720   5.6737420
  24.5420320  57.2021750   3.2625500  23.9123060  56.5009060   3.4295630
  24.0025460  57.9625880   3.0458660  24.6675880  56.4805730  15.6977990
  24.3860150  56.9839330  14.9338810  25.0495580  55.6827480  15.3320120
  31.2691340  55.8959310  16.2758460  31.1556790  56.2153920  17.1709980
  32.0861080  56.2971820  15.9795740  30.1749490  45.1408290  61.7367160
  30.0943540  44.2262900  61.4658870  29.7613910  45.6375360  61.0306870
  28.3067530  46.9187310  63.6176430  27.5309630  46.4387750  63.9075000
  28.9580460  46.2392960  63.4432590  22.3233360  47.2307120  64.4952190
  21.4918240  46.9755830  64.8948700  22.9314340  47.3017890  65.2310110
  32.3274960  51.3247500  62.3975560  31.8656490  50.5534740  62.7262730
  33.1400510  51.3513570  62.9028010  22.3034620  51.2647210  64.6910210
  22.6062660  50.3744950  64.5120430  23.0478210  51.8217430  64.4632460
  20.7325310  42.1909010  58.2794580  19.8442010  42.5324980  58.1774460
  21.0166500  41.9909330  57.3875410  18.6958320  44.7914660  64.1634280
  19.2674430  44.0236860  64.1637920  18.6959860  45.0903420  63.2540890
  28.5538270  53.6105510  62.0179550  27.9349710  54.0663010  61.4473990
  29.4090050  53.7656970  61.6169250  27.7476520  49.5944500  63.6246590
  27.6784800  48.6534440  63.4635720  28.5096380  49.6845910  64.1969160
  19.9383190  40.1999020  65.9503210  19.7586030  39.3024770  66.2305970
  19.5363270  40.7470890  66.6250160  28.7781690  42.4014880  63.8515520
  29.1546510  41.5286760  63.7389190  28.6801200  42.7373580  62.9605960
  22.9086700  40.7740510  59.3132960  23.0153450  41.6744240  59.6201720
  21.9979060  40.7258480  59.0227610  32.5605810  39.8965320  60.7843860
  33.3815430  39.4061890  60.8269340  32.5939890  40.4862980  61.5375700
  20.5569860  42.6959520  64.5585550  21.2379970  42.9597890  65.1772950
  20.2417910  41.8560390  64.8923560  24.7494430  43.7426880  63.6458140
  25.2572650  44.2407850  64.2863160  25.2807670  42.9662080  63.4697500
  36.8505360  41.9132070  67.3487490  36.1457530  42.3013780  66.8302600
  37.1163280  42.6082360  67.9508420  23.0330530  38.3825440  67.9121560
  23.0348970  38.8997830  67.1067460  22.2034840  37.9055620  67.8891490
  29.4201620  48.4944750  59.4111460  28.8018890  48.9594200  58.8474180
  29.9324870  49.1872230  59.8280970  24.2833380  48.0220620  66.0895060
  23.9502760  48.6489540  66.7316130  24.4600060  48.5482500  65.3096730
  32.7967290  41.8365700  63.5571400  32.0922860  42.1250590  64.1374510
  33.1579450  42.6465810  63.1970960  22.7145860  40.0935400  65.9192010
  23.0562670  40.9377450  65.6245880  21.7761670  40.2419140  66.0357350
  23.4952480  49.9901420  67.9044240  24.1126480  50.6652500  67.6228690
  22.6345600  50.3989400  67.8131740  18.7884820  49.1801280  56.7851090
  18.4112800  49.6688380  56.0535990  19.0457890  49.8526560  57.4157620
  34.4130070  51.4540830  65.8198880  33.7293590  52.1239940  65.8115550
  34.9524360  51.6521480  65.0543740  35.8654210  41.2820490  63.9480610
  34.9179120  41.3159470  64.0796040  36.1904200  42.0959440  64.3329970
  26.3973750  37.5817670  62.2436600  26.7048730  37.0264560  61.5272100
  25.4674450  37.7162130  62.0609590  31.9488810  53.2984960  64.5344060
  31.9615970  52.8947250  63.6666320  31.3964030  54.0732250  64.4305490
  33.2434230  50.0201180  59.6234230  33.1330560  49.0775510  59.7483650
  33.2402480  50.3816820  60.5096990  31.3474250  48.2014800  65.8626670
  31.7643040  47.9874910  65.0280130  32.0714070  48.4587590  66.4335290
  28.7854510  45.6466500  58.9796720  27.8583790  45.5803880  59.2085190
  28.9379330  46.5846630  58.8651960  28.7723590  41.9183500  55.9763880
  27.8327260  42.0797460  56.0616340  29.0906850  42.6369180  55.4299870
  35.2936350  46.6002020  65.9542910  34.4654980  46.6695110  65.4793040
  35.8886830  47.1856330  65.4858740  32.8151800  47.2086800  59.4831970
  32.1964220  46.8706350  58.8358270  32.7976250  46.5646560  60.1911160
  32.2578360  43.3871340  66.8997780  31.8449540  44.2125050  67.1537770
  31.5254310  42.8016380  66.7074140  24.3911150  46.1731240  61.7616450
  23.9868150  45.4608490  61.2662350  24.4774270  45.8284480  62.6504490
  24.8592850  49.8598800  63.9255660  24.5621140  49.2544270  63.2463440
  25.8092670  49.8976110  63.8145020  23.1039770  42.9474450  65.5415490
  23.6554360  43.0569790  64.7668740  23.6183280  43.3212050  66.2570720
  32.9478460  53.4330670  67.5878760  32.4709020  54.2402860  67.3951370
  32.2640250  52.7809000  67.7404970  30.9916500  46.4473610  56.4904720
  31.4309780  45.6096040  56.3442540  31.7044920  47.0803010  56.5768860
  29.1011880  51.3869680  60.4585960  29.5407790  52.1294010  60.0441350
  29.0398770  51.6296250  61.3824920  34.5733640  37.7016420  54.8045760
  34.2606300  37.7943250  55.7044830  35.3346110  38.2797450  54.7543190
  21.0915780  45.0676220  59.2623100  20.9713380  45.7938310  58.6504370
  20.7816670  44.2979130  58.7851010  18.7301150  48.2391360  65.0691740
  18.8081570  48.3740130  64.1247460  19.3442830  47.5307250  65.2619860
  19.9748780  49.9391550  61.4797920  19.5676860  50.0806140  60.6251520
  20.8661790  49.6551710  61.2769130  31.7682060  54.3738800  57.8148970
  31.6083200  54.0841740  58.7130800  31.6028770  53.5978930  57.2794200
  24.2470440  54.1537330  59.5920590  24.0712920  53.2372870  59.3788390
  23.3926180  54.5124620  59.8318390  31.4708190  51.8826360  56.3746970
  30.7773350  51.8803650  55.7149250  32.2131050  51.4585680  55.9441140
  31.0358120  53.5089070  60.4495460  31.4915070  52.7278450  60.7634080
  31.3750640  54.2195890  60.9936640  18.7860670  49.2805530  67.6086200
  18.9491710  48.8110890  66.7905570  19.2513120  48.7729090  68.2735040
  23.5579440  38.4111290  62.6446770  23.1147590  39.1920830  62.3131290
  24.1164430  38.7341180  63.3517710  27.8449250  41.2779810  68.2482090
  27.3828620  41.4862830  69.0602030  27.4427360  40.4639160  67.9452760
  26.6738260  38.0321990  57.5252600  26.0492440  38.0281860  58.2505910
  26.5868380  37.1652950  57.1288570  25.5955340  38.9558620  64.5036370
  25.8927670  39.8621450  64.4228390  26.1440900  38.4677400  63.8895940
  23.3493660  43.5344860  60.3728020  23.1234580  43.3182030  61.2774640
  22.5686190  43.9673320  60.0273990  30.5791420  43.5408230  58.9718670
  29.9800310  44.2644030  58.7882290  31.1271030  43.4785010  58.1895120
  29.1856290  42.1771770  61.0021950  29.5785860  42.4943970  60.1890640
  29.5473140  41.2983650  61.1166470  18.2220460  38.7672570  63.2252150
  17.9333510  39.3375430  63.9377130  18.9666220  38.2877020  63.5883380
  18.4090690  42.7092690  54.4354870  18.3265360  43.6523450  54.5769860
  18.0573750  42.5667600  53.5567220  29.7711430  44.7677520  65.0972730
  29.0392550  45.2764330  65.4462830  29.3735770  43.9507500  64.7961510
  26.2088820  41.4431720  63.5025220  26.2124880  41.0021670  62.6529760
  27.1039940  41.7649050  63.6097040  22.0591200  41.3258210  62.4619430
  21.7191250  41.8033440  63.2186480  21.2968520  40.8723330  62.1020530
  26.2708970  42.4443800  56.4931980  26.3921790  42.4030280  57.4417800
  25.8857480  43.3067950  56.3378710  30.2337340  40.2211200  64.5095670
  30.2510080  40.6719850  65.3537520  29.9852920  39.3216840  64.7229110
  25.2830470  44.7544940  55.8915280  24.7147370  44.3063190  55.2651190
  25.9919470  45.1137720  55.3580430  26.5096790  45.5033500  65.2490630
  26.8766920  45.0292070  65.9951970  26.3201850  46.3775070  65.5898970
  19.3737280  40.2477190  61.3784100  19.0884200  39.8832860  62.2162720
  19.3116140  39.5157650  60.7647240  24.2996160  44.5442140  67.5674840
  23.9953230  45.4234120  67.7925200  25.2542620  44.6041930  67.6032280
  22.8277950  48.7503130  58.1641690  22.0540210  48.2100750  58.0040410
  23.5572580  48.2309740  57.8259450  33.5865930  47.7468490  63.9568080
  34.3065050  48.2423780  63.5664190  33.3847750  47.0686380  63.3121950
  29.0475870  39.1406450  58.0997470  28.2340480  38.6419620  58.0242780
  28.8537820  39.9804700  57.6833820  31.7624260  43.5126100  56.3959630
  32.6503880  43.8243330  56.2210970  31.7329350  42.6398350  56.0040210
  22.8715350  48.4183510  61.8020500  23.3894020  47.6151770  61.7477390
  22.4199370  48.3562650  62.6437330  27.7584850  49.6849790  57.0747800
  28.1000550  50.4292020  56.5791120  26.9297560  49.9980910  57.4372630
  34.0338530  44.8237940  55.8639490  33.9502250  45.2552160  55.0135930
  34.7532720  45.2836290  56.2966310  35.1112670  47.2805460  68.9409460
  34.3860860  47.8734240  68.7438850  35.6388130  47.2729000  68.1422830
  35.0625780  51.6780200  58.5921620  34.4201940  51.0235820  58.8665340
  34.6756440  52.0835290  57.8162290  30.6412260  49.0065630  62.4393310
  30.9936080  48.4093760  61.7794680  29.7574590  48.6809860  62.6101560
  26.7275540  49.7663320  59.8463720  27.4146670  50.3132530  60.2271310
  25.9407960  50.3104050  59.8813330  18.8667940  45.3836140  55.3380800
  19.7362790  45.6660940  55.6216720  18.3758260  46.1972010  55.2229610
  26.0302750  46.7709350  59.4589080  26.4865530  47.5814600  59.6849270
  25.6790960  46.4532490  60.2907570  28.3335360  52.2815690  66.6881380
  28.9777580  52.4875070  67.3654800  28.6964800  51.5204090  66.2352230
  21.9314530  37.1147000  59.9311600  21.8029160  37.1064900  60.8796520
  21.1076550  37.4530090  59.5802610  29.6067440  50.2848040  65.4058830
  30.2489670  49.5841200  65.5191000  30.1316790  51.0646480  65.2255720
  33.4523160  50.5696660  55.1297970  33.2260740  49.8527100  55.7222610
  33.0619360  50.3209100  54.2919720  19.2339190  54.5963520  55.9042430
  19.5936830  55.1952860  55.2499700  19.0931530  55.1423410  56.6777460
  33.0339410  48.4868600  56.7912130  32.7461110  48.9481290  57.5790010
  33.8291580  48.0266370  57.0596350  25.2507810  51.9794720  56.7216100
  25.2417910  52.7124410  56.1060610  24.3306170  51.7326300  56.8143060
  20.8514450  47.2009610  57.4662860  20.2442400  47.9408510  57.4758160
  21.3263800  47.2908970  56.6401060  30.4247240  41.3660430  67.1419750
  30.7928060  40.5455640  67.4699320  29.5645440  41.4262320  67.5575400
  33.7909270  40.3217370  57.9507310  33.1622430  40.4263040  57.2365540
  33.2961190  40.5414150  58.7401190  28.2367410  52.0422960  55.3841290
  28.3379390  51.8386950  54.4543270  27.3369150  51.7881240  55.5889070
  25.7593300  42.6003320  59.3665190  25.0509450  43.0689660  59.8078800
  26.0437780  41.9425330  60.0010380  27.3849230  44.0200020  67.3657720
  27.8834480  44.4945840  68.0309570  27.5272180  43.0963540  67.5727750
  29.7908730  39.3253980  60.8060980  29.6676510  39.3440110  59.8570490
  30.7393290  39.3732920  60.9259380  26.8785520  54.5609280  60.0788960
  27.1327020  54.5230670  59.1568330  25.9298000  54.4342610  60.0717210
  23.9628320  40.9088400  56.7415900  24.8118850  41.3458550  56.6756090
  23.5959590  41.2208660  57.5687960  34.5916090  40.2367980  68.2086110
  34.0889690  40.9773380  68.5479920  35.4072750  40.6251980  67.8922900
  32.8838100  45.4801160  61.6547470  31.9428240  45.4951390  61.8295160
  33.1982170  44.6937120  62.1007770  22.8619740  47.1620760  55.2151430
  23.6283010  47.0502120  55.7776860  22.9394430  46.4658730  54.5628200
  21.5566500  44.5945830  55.8984320  21.6370090  43.6473340  56.0101720
  22.4486250  44.9252710  56.0044980  34.8863680  52.6510010  63.3301730
  35.0111100  53.4741180  63.8025540  35.7529240  52.4400740  62.9825880
  22.3581210  54.7441220  63.0018860  23.0943690  54.1956680  63.2727430
  22.7422130  55.6097230  62.8624850  19.2426690  50.8114790  58.8760370
  18.3166470  51.0535930  58.8665780  19.7083120  51.6389050  58.7545120
  25.4683520  53.9171530  54.8244430  26.2612130  54.2060360  54.3726220
  24.9487870  53.4863700  54.1456910  34.5213690  53.1441660  56.2481170
  34.2355200  52.7306800  55.4335350  34.3233240  54.0729370  56.1281690
  25.9860920  49.1374940  54.6886780  25.8811560  48.5227290  55.4148160
  25.8185140  48.6140830  53.9049790  29.2263650  48.1994970  55.2928770
  28.6773750  48.6464270  55.9371510  29.8482910  47.6944220  55.8166440
  24.8938770  47.1585890  57.1894070  25.3155190  46.9925760  58.0325460
  25.0189610  46.3486120  56.6949210  27.4066410  46.1823500  54.4371170
  27.9272070  45.4672520  54.0712320  28.0534810  46.8209370  54.7371680
  26.3099930  38.6618050  67.1089730  25.8617230  38.6842310  66.2635280
  25.6765130  38.2637070  67.7060030  26.7159480  47.5572380  67.7302170
  27.1347590  48.4005110  67.5578410  25.7968110  47.6944420  67.5008950
  31.3911280  45.8425750  67.6902520  30.8646500  46.3668370  67.0867660
  31.7342620  46.4753140  68.3212250  23.7897670  43.2319120  54.1352230
  23.5886730  42.3686480  54.4965570  23.6189720  43.1452480  53.1973830
  24.5666900  53.8625390  68.8459900  24.0287990  54.5871450  68.5268600
  24.8200860  53.3855730  68.0557240  31.2685980  38.0427350  56.6639110
  31.5488270  37.1995250  57.0198530  30.4951710  38.2750460  57.1777860
  22.5880470  40.3319740  54.1230110  22.8906370  40.3387170  53.2149260
  23.3275060  39.9817600  54.6197770  25.8065400  39.2754360  55.1086310
  25.4587400  38.5978350  54.5288760  26.0078170  38.8143870  55.9229700
  27.9714440  54.2635110  56.7272910  28.8665230  54.6020080  56.7491670
  28.0032070  53.5414520  56.0997190  21.6110600  49.6362160  54.9559910
  22.0485470  50.1791830  55.6117490  22.0958330  48.8109110  54.9656250
  18.8256400  52.4251190  62.4080170  19.1559410  51.5572250  62.1758810
  19.2547400  52.6309710  63.2385130  23.4218320  50.7560200  60.0682140
  23.1213860  50.6325170  60.9686050  23.3155810  49.8968790  59.6597870
  19.3146610  53.2921780  65.1461800  18.8777600  53.4722580  65.9785950
  19.8824290  54.0496400  65.0043520  36.1910240  50.5356600  54.7708820
  35.3603200  50.6033250  55.2416050  36.3682070  51.4260720  54.4675680
  35.6466700  47.2804080  57.2743020  36.4085610  47.8500730  57.3802710
  35.6621070  46.7131280  58.0451330  19.1471040  45.8042010  61.5050680
  18.4919880  45.5353650  60.8610380  19.9848990  45.6946490  61.0552660
  36.6526670  48.1354180  62.1184950  37.0235500  47.3521500  61.7120920
  37.2928600  48.8243280  61.9402250  33.6360430  49.5190760  67.5315270
  32.8220270  49.9487920  67.7941060  34.0434630  50.1309170  66.9184320
  35.6985870  47.5738450  54.4315540  35.9734710  48.4817330  54.3034760
  35.5096610  47.5100980  55.3677530  32.0961480  40.5983300  55.7269170
  32.5146360  40.4114280  54.8865830  31.7897540  39.7462350  56.0372100
  35.5951210  45.5107440  59.4244970  35.2194810  44.7435370  58.9926260
  34.8654330  45.8930140  59.9119900  20.1846970  46.1894580  66.0454020
  20.5520010  46.1021980  66.9250040  19.6157790  45.4261130  65.9460880
  34.9850830  44.6578960  69.0584490  34.7536920  44.4291710  68.1582440
  35.2455380  45.5778510  69.0129380  18.3609120  43.0140940  57.4476010
  17.4573200  43.2771140  57.2727670  18.8449740  43.2852110  56.6675970
  34.8702170  43.7364930  62.7252210  35.3939650  43.2427580  62.0942380
  35.4561590  43.8715290  63.4699780  35.0491890  43.8204800  66.2471760
  34.0994600  43.7868340  66.3616750  35.2304900  44.7304910  66.0121530
  20.9036330  42.0706480  55.3570390  21.6128030  41.6489700  54.8717670
  20.1876270  42.1381710  54.7253740  20.5510490  38.1245810  54.3973040
  21.2738620  38.6654750  54.7154260  20.8235010  37.8509230  53.5214580
  34.3602140  42.9938280  58.6644620  34.8561260  42.7609150  59.4493500
  34.1618210  42.1550120  58.2482260  20.2402680  37.3752000  64.2995660
  20.8878870  36.8249380  63.8590820  20.6604520  37.6295150  65.1211470
  35.7889300  41.6299230  61.1982300  35.6788580  41.4755270  62.1364570
  36.5496890  41.1020170  60.9557710  34.1355020  37.5693360  67.6565300
  34.7727240  38.1827500  68.0224490  34.2829910  37.6054020  66.7114530
  36.6779570  39.4607150  54.4388440  37.6028880  39.3288330  54.2306730
  36.6555360  39.5399970  55.3924890  36.7518060  40.2317810  57.0645150
  35.9569560  40.1662930  57.5938060  36.9561340  41.1668450  57.0530500
  33.6936480  54.2709360  61.0583540  34.2895550  53.9493930  60.3817960
  33.9514630  53.7981180  61.8496810  19.9934680  37.5307670  67.0420980
  19.6449500  37.9871490  67.8079160  19.6622380  36.6364800  67.1243410
  25.3005080  52.2586860  66.8083890  25.0596440  52.5261420  65.9214410
  26.2407720  52.4292590  66.8634750  36.5609240  54.2781240  67.6094530
  36.0667520  54.6750110  66.8921660  35.9522530  53.6530450  68.0031810
  21.4387080  53.6489520  68.3271950  20.8447400  53.5174220  69.0661990
  21.4310920  52.8127660  67.8614050  30.8842100  36.9421750  66.5301980
  30.0101940  37.2756860  66.3274910  30.7752850  36.4694930  67.3553850
  31.7914080  39.1492620  67.9143700  31.4627440  38.3344380  67.5345430
  32.7396380  39.1062430  67.7909390  34.2448690  54.9204660  64.8881270
  33.7851660  55.6720470  64.5139290  33.6161150  54.2011130  64.8296070
  21.0699310  51.0147900  67.2779990  20.3433370  50.3953190  67.2105940
  21.1308460  51.4088510  66.4078070  24.6744410  53.2292900  64.0629400
  25.1909430  52.6180260  63.5377660  25.3241790  53.7321680  64.5540410
  27.4139910  54.1201390  64.8898380  27.7017720  53.8655690  64.0131390
  27.9263130  53.5678750  65.4803950  28.6316920  37.8591590  65.4694890
  27.8488710  38.3337090  65.7491650  28.3379850  36.9546420  65.3608070
  33.1837990  38.5614690  63.5143980  33.6246080  38.5059790  62.6665580
  32.9145580  39.4772700  63.5854160  35.0476560  38.1929930  61.5252800
  34.9864960  37.2491150  61.3783820  35.8268590  38.3010020  62.0706260
  19.3529310  54.3322290  60.4876750  19.1851350  53.6992970  61.1858640
  18.4863820  54.5381690  60.1370940  19.9757330  38.1639070  57.9908610
  20.7336690  38.2767950  57.4172640  19.5134500  39.0008270  57.9452040
  26.5171140  40.2778340  60.9810920  25.7045650  39.9035230  60.6406800
  27.0212780  39.5223420  61.2832110  31.0196120  36.9420790  62.2193990
  31.6225490  37.5141000  62.6942510  30.2789110  37.5060230  61.9967890
  34.1630720  37.3442350  57.4934270  34.3581350  38.2425800  57.7601700
  33.3760590  37.1129430  57.9867220  20.9592010  53.0255520  57.9326890
  20.4339630  53.4063550  57.2288850  20.8836590  53.6506290  58.6536600
  22.3482480  38.6903120  56.5310580  22.8775240  37.9032920  56.4018530
  22.9810800  39.3694310  56.7646110  24.5420320  38.4278260  59.5855970
  23.9123060  37.7265570  59.7526100  24.0025460  39.1882390  59.3689130
  35.7157330  54.5843060  59.2540830  35.8909520  53.8980800  58.6101750
  35.0178900  55.1090110  58.8617500  23.5584980  54.9737900  56.8076140
  24.2903800  54.6897180  56.2600030  23.8178650  54.7351180  57.6975520
  22.7199770  51.0902630  56.8122470  22.0908650  51.5587730  57.3608300
  22.8347600  50.2451850  57.2468660  30.1749490  45.1408290  42.9623670
  30.0943540  44.2262900  42.6915380  29.7613910  45.6375360  42.2563380
  28.3067530  46.9187310  44.8432940  27.5309630  46.4387750  45.1331510
  28.9580460  46.2392960  44.6689100  22.3233360  47.2307120  45.7208700
  21.4918240  46.9755830  46.1205210  22.9314340  47.3017890  46.4566620
  32.3274960  51.3247500  43.6232070  31.8656490  50.5534740  43.9519240
  33.1400510  51.3513570  44.1284520  22.3034620  51.2647210  45.9166720
  22.6062660  50.3744950  45.7376940  23.0478210  51.8217430  45.6888970
  20.7325310  42.1909010  39.5051090  19.8442010  42.5324980  39.4030970
  21.0166500  41.9909330  38.6131920  18.6958320  44.7914660  45.3890790
  19.2674430  44.0236860  45.3894430  18.6959860  45.0903420  44.4797400
  28.5538270  53.6105510  43.2436060  27.9349710  54.0663010  42.6730500
  29.4090050  53.7656970  42.8425760  27.7476520  49.5944500  44.8503100
  27.6784800  48.6534440  44.6892230  28.5096380  49.6845910  45.4225670
  19.9383190  40.1999020  47.1759720  19.7586030  39.3024770  47.4562480
  19.5363270  40.7470890  47.8506670  28.7781690  42.4014880  45.0772030
  29.1546510  41.5286760  44.9645700  28.6801200  42.7373580  44.1862470
  22.9086700  40.7740510  40.5389470  23.0153450  41.6744240  40.8458230
  21.9979060  40.7258480  40.2484120  32.5605810  39.8965320  42.0100370
  33.3815430  39.4061890  42.0525850  32.5939890  40.4862980  42.7632210
  20.5569860  42.6959520  45.7842060  21.2379970  42.9597890  46.4029460
  20.2417910  41.8560390  46.1180070  24.7494430  43.7426880  44.8714650
  25.2572650  44.2407850  45.5119670  25.2807670  42.9662080  44.6954010
  36.8505360  41.9132070  48.5744000  36.1457530  42.3013780  48.0559110
  37.1163280  42.6082360  49.1764930  23.0330530  38.3825440  49.1378070
  23.0348970  38.8997830  48.3323970  22.2034840  37.9055620  49.1148000
  29.4201620  48.4944750  40.6367970  28.8018890  48.9594200  40.0730690
  29.9324870  49.1872230  41.0537480  24.2833380  48.0220620  47.3151570
  23.9502760  48.6489540  47.9572640  24.4600060  48.5482500  46.5353240
  32.7967290  41.8365700  44.7827910  32.0922860  42.1250590  45.3631020
  33.1579450  42.6465810  44.4227470  22.7145860  40.0935400  47.1448520
  23.0562670  40.9377450  46.8502390  21.7761670  40.2419140  47.2613860
  23.4952480  49.9901420  49.1300750  24.1126480  50.6652500  48.8485200
  22.6345600  50.3989400  49.0388250  18.7884820  49.1801280  38.0107600
  18.4112800  49.6688380  37.2792500  19.0457890  49.8526560  38.6414130
  34.4130070  51.4540830  47.0455390  33.7293590  52.1239940  47.0372060
  34.9524360  51.6521480  46.2800250  35.8654210  41.2820490  45.1737120
  34.9179120  41.3159470  45.3052550  36.1904200  42.0959440  45.5586480
  26.3973750  37.5817670  43.4693110  26.7048730  37.0264560  42.7528610
  25.4674450  37.7162130  43.2866100  31.9488810  53.2984960  45.7600570
  31.9615970  52.8947250  44.8922830  31.3964030  54.0732250  45.6562000
  33.2434230  50.0201180  40.8490740  33.1330560  49.0775510  40.9740160
  33.2402480  50.3816820  41.7353500  31.3474250  48.2014800  47.0883180
  31.7643040  47.9874910  46.2536640  32.0714070  48.4587590  47.6591800
  28.7854510  45.6466500  40.2053230  27.8583790  45.5803880  40.4341700
  28.9379330  46.5846630  40.0908470  28.7723590  41.9183500  37.2020390
  27.8327260  42.0797460  37.2872850  29.0906850  42.6369180  36.6556380
  35.2936350  46.6002020  47.1799420  34.4654980  46.6695110  46.7049550
  35.8886830  47.1856330  46.7115250  32.8151800  47.2086800  40.7088480
  32.1964220  46.8706350  40.0614780  32.7976250  46.5646560  41.4167670
  32.2578360  43.3871340  48.1254290  31.8449540  44.2125050  48.3794280
  31.5254310  42.8016380  47.9330650  24.3911150  46.1731240  42.9872960
  23.9868150  45.4608490  42.4918860  24.4774270  45.8284480  43.8761000
  24.8592850  49.8598800  45.1512170  24.5621140  49.2544270  44.4719950
  25.8092670  49.8976110  45.0401530  23.1039770  42.9474450  46.7672000
  23.6554360  43.0569790  45.9925250  23.6183280  43.3212050  47.4827230
  32.9478460  53.4330670  48.8135270  32.4709020  54.2402860  48.6207880
  32.2640250  52.7809000  48.9661480  23.9511280  49.5980490  51.8019970
  23.0539810  49.8220460  52.0493370  23.9764150  49.7215430  50.8531370
  30.9916500  46.4473610  37.7161230  31.4309780  45.6096040  37.5699050
  31.7044920  47.0803010  37.8025370  22.7782500  46.4693810  50.3777340
  22.6390270  47.3416610  50.7464740  21.8963860  46.1266620  50.2325280
  29.1011880  51.3869680  41.6842470  29.5407790  52.1294010  41.2697860
  29.0398770  51.6296250  42.6081430  24.5762850  52.4115510  52.5862490
  24.5478280  52.8158460  51.7190920  24.4127820  51.4825870  52.4234090
  21.0915780  45.0676220  40.4879610  20.9713380  45.7938310  39.8760880
  20.7816670  44.2979130  40.0107520  36.5277670  53.1942610  53.8826660
  37.0037390  53.6725500  54.5615740  37.1484830  53.1260100  53.1572160
  18.7301150  48.2391360  46.2948250  18.8081570  48.3740130  45.3503970
  19.3442830  47.5307250  46.4876370  19.9748780  49.9391550  42.7054430
  19.5676860  50.0806140  41.8508030  20.8661790  49.6551710  42.5025640
  35.9310920  50.3855460  51.0426670  36.0573980  50.1467340  50.1243850
  35.9732300  49.5540000  51.5148750  29.7927660  54.0883460  49.6121480
  30.3072330  53.9991470  50.4143910  28.9496740  54.4343160  49.9049390
  31.7682060  54.3738800  39.0405480  31.6083200  54.0841740  39.9387310
  31.6028770  53.5978930  38.5050710  24.2470440  54.1537330  40.8177100
  24.0712920  53.2372870  40.6044900  23.3926180  54.5124620  41.0574900
  31.4708190  51.8826360  37.6003480  30.7773350  51.8803650  36.9405760
  32.2131050  51.4585680  37.1697650  31.0358120  53.5089070  41.6751970
  31.4915070  52.7278450  41.9890590  31.3750640  54.2195890  42.2193150
  35.7834930  42.4387920  52.0076410  35.1679200  42.9467590  51.4791870
  35.4631350  41.5386250  51.9502350  18.7860670  49.2805530  48.8342710
  18.9491710  48.8110890  48.0162080  19.2513120  48.7729090  49.4991550
  23.5579440  38.4111290  43.8703280  23.1147590  39.1920830  43.5387800
  24.1164430  38.7341180  44.5774220  27.8449250  41.2779810  49.4738600
  27.3828620  41.4862830  50.2858540  27.4427360  40.4639160  49.1709270
  32.8453760  42.4988760  50.6035260  31.9947350  42.1994510  50.9244330
  32.6855550  42.7430770  49.6919080  29.9403470  43.9990510  52.7034050
  30.2656880  43.1654260  52.3636280  30.7283800  44.5219030  52.8512380
  26.6738260  38.0321990  38.7509110  26.0492440  38.0281860  39.4762420
  26.5868380  37.1652950  38.3545080  25.5955340  38.9558620  45.7292880
  25.8927670  39.8621450  45.6484900  26.1440900  38.4677400  45.1152450
  23.3493660  43.5344860  41.5984530  23.1234580  43.3182030  42.5031150
  22.5686190  43.9673320  41.2530500  30.5791420  43.5408230  40.1975180
  29.9800310  44.2644030  40.0138800  31.1271030  43.4785010  39.4151630
  25.7892870  44.4330440  52.2644800  25.6936470  43.4925170  52.1145200
  26.6324850  44.6545510  51.8692870  29.1856290  42.1771770  42.2278460
  29.5785860  42.4943970  41.4147150  29.5473140  41.2983650  42.3422980
  20.9203410  40.8444110  50.4178580  20.5266800  41.6919320  50.6251360
  20.2321810  40.2070480  50.6087220  27.4948460  40.9279080  53.4875320
  26.8046780  40.7351280  54.1221410  28.2380760  41.2113720  54.0199620
  18.2220460  38.7672570  44.4508660  17.9333510  39.3375430  45.1633640
  18.9666220  38.2877020  44.8139890  18.4090690  42.7092690  35.6611380
  18.3265360  43.6523450  35.8026370  18.0573750  42.5667600  34.7823730
  29.7711430  44.7677520  46.3229240  29.0392550  45.2764330  46.6719340
  29.3735770  43.9507500  46.0218020  26.2088820  41.4431720  44.7281730
  26.2124880  41.0021670  43.8786270  27.1039940  41.7649050  44.8353550
  22.0591200  41.3258210  43.6875940  21.7191250  41.8033440  44.4442990
  21.2968520  40.8723330  43.3277040  26.2708970  42.4443800  37.7188490
  26.3921790  42.4030280  38.6674310  25.8857480  43.3067950  37.5635220
  30.2337340  40.2211200  45.7352180  30.2510080  40.6719850  46.5794030
  29.9852920  39.3216840  45.9485620  25.2830470  44.7544940  37.1171790
  24.7147370  44.3063190  36.4907700  25.9919470  45.1137720  36.5836940
  33.6608090  37.6343380  51.5738560  33.9853860  36.9033040  52.0996540
  33.6964600  37.3157020  50.6719550  20.3599650  48.6556960  50.9938520
  19.9754440  48.0150630  51.5921480  20.6711840  49.3593080  51.5633250
  26.5096790  45.5033500  46.4747140  26.8766920  45.0292070  47.2208480
  26.3201850  46.3775070  46.8155480  19.3737280  40.2477190  42.6040610
  19.0884200  39.8832860  43.4419230  19.3116140  39.5157650  41.9903750
  24.2996160  44.5442140  48.7931350  23.9953230  45.4234120  49.0181710
  25.2542620  44.6041930  48.8288790  22.8277950  48.7503130  39.3898200
  22.0540210  48.2100750  39.2296920  23.5572580  48.2309740  39.0515960
  33.5865930  47.7468490  45.1824590  34.3065050  48.2423780  44.7920700
  33.3847750  47.0686380  44.5378460  29.0475870  39.1406450  39.3253980
  28.2340480  38.6419620  39.2499290  28.8537820  39.9804700  38.9090330
  28.9684730  47.8177550  51.0693590  28.9022040  46.8973220  50.8151180
  28.3389870  47.9152990  51.7838230  31.7624260  43.5126100  37.6216140
  32.6503880  43.8243330  37.4467480  31.7329350  42.6398350  37.2296720
  22.8715350  48.4183510  43.0277010  23.3894020  47.6151770  42.9733900
  22.4199370  48.3562650  43.8693840  27.7584850  49.6849790  38.3004310
  28.1000550  50.4292020  37.8047630  26.9297560  49.9980910  38.6629140
  20.3559890  45.3844880  49.9402710  19.9974830  46.0498730  50.5276050
  20.0614450  44.5528430  50.3115330  23.5573010  45.8429120  52.8242260
  23.2573150  45.9886300  51.9270080  24.3284250  45.2834410  52.7315650
  28.9001460  50.6398120  50.8197390  28.9146000  49.7079080  50.6016300
  28.1926560  50.7257880  51.4587160  34.0338530  44.8237940  37.0896000
  33.9502250  45.2552160  36.2392440  34.7532720  45.2836290  37.5222820
  35.1112670  47.2805460  50.1665970  34.3860860  47.8734240  49.9695360
  35.6388130  47.2729000  49.3679340  35.0625780  51.6780200  39.8178130
  34.4201940  51.0235820  40.0921850  34.6756440  52.0835290  39.0418800
  30.6412260  49.0065630  43.6649820  30.9936080  48.4093760  43.0051190
  29.7574590  48.6809860  43.8358070  26.7275540  49.7663320  41.0720230
  27.4146670  50.3132530  41.4527820  25.9407960  50.3104050  41.1069840
  18.8667940  45.3836140  36.5637310  19.7362790  45.6660940  36.8473230
  18.3758260  46.1972010  36.4486120  26.0302750  46.7709350  40.6845590
  26.4865530  47.5814600  40.9105780  25.6790960  46.4532490  41.5164080
  28.3335360  52.2815690  47.9137890  28.9777580  52.4875070  48.5911310
  28.6964800  51.5204090  47.4608740  21.9314530  37.1147000  41.1568110
  21.8029160  37.1064900  42.1053030  21.1076550  37.4530090  40.8059120
  29.6067440  50.2848040  46.6315340  30.2489670  49.5841200  46.7447510
  30.1316790  51.0646480  46.4512230  33.4523160  50.5696660  36.3554480
  33.2260740  49.8527100  36.9479120  33.0619360  50.3209100  35.5176230
  31.3805060  51.0842940  49.8351400  31.7161300  51.6709630  50.5129320
  30.4605400  50.9535650  50.0649190  19.2339190  54.5963520  37.1298940
  19.5936830  55.1952860  36.4756210  19.0931530  55.1423410  37.9033970
  18.9308460  38.8738120  50.6174810  18.2166980  39.0735040  51.2227420
  19.3503500  38.0977690  50.9889610  33.0339410  48.4868600  38.0168640
  32.7461110  48.9481290  38.8046520  33.8291580  48.0266370  38.2852860
  19.2181050  52.8618380  51.6041340  19.3272170  51.9213120  51.4636730
  18.5661610  53.1273130  50.9555070  27.2093640  51.1334270  53.0039460
  26.8890510  50.4143510  53.5485150  26.5352000  51.8089340  53.0775520
  25.2507810  51.9794720  37.9472610  25.2417910  52.7124410  37.3317120
  24.3306170  51.7326300  38.0399570  20.8514450  47.2009610  38.6919370
  20.2442400  47.9408510  38.7014670  21.3263800  47.2908970  37.8657570
  30.4247240  41.3660430  48.3676260  30.7928060  40.5455640  48.6955830
  29.5645440  41.4262320  48.7831910  28.2367410  52.0422960  36.6097800
  28.3379390  51.8386950  35.6799780  27.3369150  51.7881240  36.8145580
  25.7593300  42.6003320  40.5921700  25.0509450  43.0689660  41.0335310
  26.0437780  41.9425330  41.2266890  27.3849230  44.0200020  48.5914230
  27.8834480  44.4945840  49.2566080  27.5272180  43.0963540  48.7984260
  29.7908730  39.3253980  42.0317490  29.6676510  39.3440110  41.0827000
  30.7393290  39.3732920  42.1515890  26.8785520  54.5609280  41.3045470
  27.1327020  54.5230670  40.3824840  25.9298000  54.4342610  41.2973720
  23.9628320  40.9088400  37.9672410  24.8118850  41.3458550  37.9012600
  23.5959590  41.2208660  38.7944470  34.5916090  40.2367980  49.4342620
  34.0889690  40.9773380  49.7736430  35.4072750  40.6251980  49.1179410
  32.8838100  45.4801160  42.8803980  31.9428240  45.4951390  43.0551670
  33.1982170  44.6937120  43.3264280  22.8619740  47.1620760  36.4407940
  23.6283010  47.0502120  37.0033370  22.9394430  46.4658730  35.7884710
  21.5566500  44.5945830  37.1240830  21.6370090  43.6473340  37.2358230
  22.4486250  44.9252710  37.2301490  34.8863680  52.6510010  44.5558240
  35.0111100  53.4741180  45.0282050  35.7529240  52.4400740  44.2082390
  22.3581210  54.7441220  44.2275370  23.0943690  54.1956680  44.4983940
  22.7422130  55.6097230  44.0881360  19.2426690  50.8114790  40.1016880
  18.3166470  51.0535930  40.0922290  19.7083120  51.6389050  39.9801630
  21.3639490  53.9287290  53.4160950  22.1652220  54.2499340  53.8296350
  20.8491310  53.5682870  54.1380860  25.4683520  53.9171530  36.0500940
  26.2612130  54.2060360  35.5982730  24.9487870  53.4863700  35.3713420
  30.2004120  50.0367160  53.3636360  29.5942280  50.0598760  52.6232110
  29.8958230  49.3050200  53.9003610  31.6304490  53.7647450  51.9745770
  32.5826240  53.6805470  51.9246010  31.4832710  54.4289160  52.6479560
  34.5213690  53.1441660  37.4737680  34.2355200  52.7306800  36.6591860
  34.3233240  54.0729370  37.3538200  19.0837300  46.4160750  52.3597000
  19.5876320  45.8368030  52.9313230  18.3444720  46.7000980  52.8973370
  25.9860920  49.1374940  35.9143290  25.8811560  48.5227290  36.6404670
  25.8185140  48.6140830  35.1306300  26.1375240  47.8231740  51.8932520
  25.3720910  48.3916740  51.8087190  26.3191200  47.5307950  51.0000750
  29.2263650  48.1994970  36.5185280  28.6773750  48.6464270  37.1628020
  29.8482910  47.6944220  37.0422950  33.2798590  49.5537070  52.4507540
  34.0208060  49.8912830  51.9475000  32.5171270  49.7229130  51.8977310
  21.1160380  44.5590340  53.2547070  21.1565720  44.2604210  54.1632300
  21.9705880  44.9597950  53.0954590  24.8938770  47.1585890  38.4150580
  25.3155190  46.9925760  39.2581970  25.0189610  46.3486120  37.9205720
  23.0566190  43.1382440  51.2221560  22.5262650  42.6473390  50.5944900
  23.7254260  43.5666640  50.6879490  27.4066410  46.1823500  35.6627680
  27.9272070  45.4672520  35.2968830  28.0534810  46.8209370  35.9628190
  31.9544250  47.6051900  50.9862750  32.3685270  47.7596980  51.8353170
  31.0195250  47.7307120  51.1488530  32.4266420  44.9448060  52.9901900
  33.0087190  44.1900380  52.9022380  32.6028190  45.4755500  52.2133380
  23.5438490  40.1044810  51.3018850  23.4495360  39.4865560  50.5769720
  22.9635880  40.8311100  51.0748760  26.3099930  38.6618050  48.3346240
  25.8617230  38.6842310  47.4891790  25.6765130  38.2637070  48.9316540
  26.7159480  47.5572380  48.9558680  27.1347590  48.4005110  48.7834920
  25.7968110  47.6944420  48.7265460  29.0523380  45.2888560  50.3396520
  29.1719590  44.6929700  51.0791360  29.9117380  45.3258250  49.9197820
  31.3911280  45.8425750  48.9159030  30.8646500  46.3668370  48.3124170
  31.7342620  46.4753140  49.5468760  23.7897670  43.2319120  35.3608740
  23.5886730  42.3686480  35.7222080  23.6189720  43.1452480  34.4230340
  24.5666900  53.8625390  50.0716410  24.0287990  54.5871450  49.7525110
  24.8200860  53.3855730  49.2813750  25.8192150  41.8309910  51.5972340
  26.4091840  41.5225760  52.2850160  25.0012390  41.3589660  51.7532240
  30.6385580  41.4475720  51.8305360  29.9501100  40.7857260  51.7655350
  31.3591600  41.0013990  52.2753820  22.5880470  40.3319740  35.3486620
  22.8906370  40.3387170  34.4405770  23.3275060  39.9817600  35.8454280
  27.4229110  55.0976600  50.3303060  27.3487810  56.0011740  50.6375430
  26.5207950  54.7788500  50.3025130  25.8065400  39.2754360  36.3342820
  25.4587400  38.5978350  35.7545270  26.0078170  38.8143870  37.1486210
  27.9714440  54.2635110  37.9529420  28.8665230  54.6020080  37.9748180
  28.0032070  53.5414520  37.3253700  21.6110600  49.6362160  36.1816420
  22.0485470  50.1791830  36.8374000  22.0958330  48.8109110  36.1912760
  18.8256400  52.4251190  43.6336680  19.1559410  51.5572250  43.4015320
  19.2547400  52.6309710  44.4641640  23.4218320  50.7560200  41.2938650
  23.1213860  50.6325170  42.1942560  23.3155810  49.8968790  40.8854380
  19.3146610  53.2921780  46.3718310  18.8777600  53.4722580  47.2042460
  19.8824290  54.0496400  46.2300030  34.9508790  52.7938780  50.6595620
  34.3510780  52.8531340  49.9159540  35.0802690  51.8543760  50.7892470
  36.1910240  50.5356600  35.9965330  35.3603200  50.6033250  36.4672560
  36.3682070  51.4260720  35.6932190  35.6466700  47.2804080  38.4999530
  36.4085610  47.8500730  38.6059220  35.6621070  46.7131280  39.2707840
  19.1471040  45.8042010  42.7307190  18.4919880  45.5353650  42.0866890
  19.9848990  45.6946490  42.2809170  36.6526670  48.1354180  43.3441460
  37.0235500  47.3521500  42.9377430  37.2928600  48.8243280  43.1658760
  33.6360430  49.5190760  48.7571780  32.8220270  49.9487920  49.0197570
  34.0434630  50.1309170  48.1440830  35.6985870  47.5738450  35.6572050
  35.9734710  48.4817330  35.5291270  35.5096610  47.5100980  36.5934040
  35.5951210  45.5107440  40.6501480  35.2194810  44.7435370  40.2182770
  34.8654330  45.8930140  41.1376410  20.1846970  46.1894580  47.2710530
  20.5520010  46.1021980  48.1506550  19.6157790  45.4261130  47.1717390
  34.9850830  44.6578960  50.2841000  34.7536920  44.4291710  49.3838950
  35.2455380  45.5778510  50.2385890  19.7362970  43.1003670  51.1768950
  18.8419020  43.0670430  51.5162660  20.2760520  43.2990460  51.9420200
  33.4238900  39.8835390  53.0620700  34.3009080  39.8918790  53.4454700
  33.4359740  39.1466230  52.4513050  18.3609120  43.0140940  38.6732520
  17.4573200  43.2771140  38.4984180  18.8449740  43.2852110  37.8932480
  34.8702170  43.7364930  43.9508720  35.3939650  43.2427580  43.3198890
  35.4561590  43.8715290  44.6956290  35.0491890  43.8204800  47.4728270
  34.0994600  43.7868340  47.5873260  35.2304900  44.7304910  47.2378040
  20.9036330  42.0706480  36.5826900  21.6128030  41.6489700  36.0974180
  20.1876270  42.1381710  35.9510250  20.5510490  38.1245810  35.6229550
  21.2738620  38.6654750  35.9410770  20.8235010  37.8509230  34.7471090
  34.3602140  42.9938280  39.8901130  34.8561260  42.7609150  40.6750010
  34.1618210  42.1550120  39.4738770  20.2402680  37.3752000  45.5252170
  20.8878870  36.8249380  45.0847330  20.6604520  37.6295150  46.3467980
  35.7889300  41.6299230  42.4238810  35.6788580  41.4755270  43.3621080
  36.5496890  41.1020170  42.1814220  34.1355020  37.5693360  48.8821810
  34.7727240  38.1827500  49.2481000  34.2829910  37.6054020  47.9371040
  33.6936480  54.2709360  42.2840050  34.2895550  53.9493930  41.6074470
  33.9514630  53.7981180  43.0753320  19.9934680  37.5307670  48.2677490
  19.6449500  37.9871490  49.0335670  19.6622380  36.6364800  48.3499920
  21.5999050  50.7027270  52.4330680  21.5568680  50.3320180  53.3145140
  21.7310060  51.6404840  52.5732500  25.3005080  52.2586860  48.0340400
  25.0596440  52.5261420  47.1470920  26.2407720  52.4292590  48.0891260
  27.5059500  38.7219550  51.7896910  27.4448390  39.3141380  52.5392320
  28.4459880  38.6145510  51.6447170  30.1434060  38.3789610  51.4289200
  30.7574470  38.6968900  50.7670280  30.6883620  37.8938200  52.0485060
  36.5609240  54.2781240  48.8351040  36.0667520  54.6750110  48.1178170
  35.9522530  53.6530450  49.2288320  20.6655320  37.0583870  51.5428260
  21.2138310  36.8771920  50.7794370  20.7310630  36.2677980  52.0784570
  21.4387080  53.6489520  49.5528460  20.8447400  53.5174220  50.2918500
  21.4310920  52.8127660  49.0870560  30.8842100  36.9421750  47.7558490
  30.0101940  37.2756860  47.5531420  30.7752850  36.4694930  48.5810360
  31.7914080  39.1492620  49.1400210  31.4627440  38.3344380  48.7601940
  32.7396380  39.1062430  49.0165900  34.2448690  54.9204660  46.1137780
  33.7851660  55.6720470  45.7395800  33.6161150  54.2011130  46.0552580
  21.0699310  51.0147900  48.5036500  20.3433370  50.3953190  48.4362450
  21.1308460  51.4088510  47.6334580  24.6744410  53.2292900  45.2885910
  25.1909430  52.6180260  44.7634170  25.3241790  53.7321680  45.7796920
  27.4139910  54.1201390  46.1154890  27.7017720  53.8655690  45.2387900
  27.9263130  53.5678750  46.7060460  28.6316920  37.8591590  46.6951400
  27.8488710  38.3337090  46.9748160  28.3379850  36.9546420  46.5864580
  33.1837990  38.5614690  44.7400490  33.6246080  38.5059790  43.8922090
  32.9145580  39.4772700  44.8110670  35.0476560  38.1929930  42.7509310
  34.9864960  37.2491150  42.6040330  35.8268590  38.3010020  43.2962770
  19.3529310  54.3322290  41.7133260  19.1851350  53.6992970  42.4115150
  18.4863820  54.5381690  41.3627450  19.9757330  38.1639070  39.2165120
  20.7336690  38.2767950  38.6429150  19.5134500  39.0008270  39.1708550
  26.5171140  40.2778340  42.2067430  25.7045650  39.9035230  41.8663310
  27.0212780  39.5223420  42.5088620  31.0196120  36.9420790  43.4450500
  31.6225490  37.5141000  43.9199020  30.2789110  37.5060230  43.2224400
  20.9592010  53.0255520  39.1583400  20.4339630  53.4063550  38.4545360
  20.8836590  53.6506290  39.8793110  22.3482480  38.6903120  37.7567090
  22.8775240  37.9032920  37.6275040  22.9810800  39.3694310  37.9902620
  24.5420320  38.4278260  40.8112480  23.9123060  37.7265570  40.9782610
  24.0025460  39.1882390  40.5945640  27.4812270  55.0417490  53.4823090
  28.4079580  54.8061760  53.5259050  27.4662700  55.8689490  53.0009120
  35.7157330  54.5843060  40.4797340  35.8909520  53.8980800  39.8358260
  35.0178900  55.1090110  40.0874010  24.6675880  37.7062240  53.2464970
  24.3860150  38.2095840  52.4825790  25.0495580  36.9083990  52.8807100
  23.5584980  54.9737900  38.0332650  24.2903800  54.6897180  37.4856540
  23.8178650  54.7351180  38.9232030  22.7199770  51.0902630  38.0378980
  22.0908650  51.5587730  38.5864810  22.8347600  50.2451850  38.4725170
  31.2691340  37.1215820  53.8245440  31.1556790  37.4410430  54.7196960
  32.0861080  37.5228330  53.5282720  34.0489830  54.2687350  53.3064130
  34.8415150  53.7736580  53.0990090  34.3422980  54.9477490  53.9139740
  30.1749490  45.1408290  24.1880180  30.0943540  44.2262900  23.9171890
  29.7613910  45.6375360  23.4819890  28.3067530  46.9187310  26.0689450
  27.5309630  46.4387750  26.3588020  28.9580460  46.2392960  25.8945610
  22.3233360  47.2307120  26.9465210  21.4918240  46.9755830  27.3461720
  22.9314340  47.3017890  27.6823130  32.3274960  51.3247500  24.8488580
  31.8656490  50.5534740  25.1775750  33.1400510  51.3513570  25.3541030
  22.3034620  51.2647210  27.1423230  22.6062660  50.3744950  26.9633450
  23.0478210  51.8217430  26.9145480  20.7325310  42.1909010  20.7307600
  19.8442010  42.5324980  20.6287480  21.0166500  41.9909330  19.8388430
  18.6958320  44.7914660  26.6147300  19.2674430  44.0236860  26.6150940
  18.6959860  45.0903420  25.7053910  28.5538270  53.6105510  24.4692570
  27.9349710  54.0663010  23.8987010  29.4090050  53.7656970  24.0682270
  27.7476520  49.5944500  26.0759610  27.6784800  48.6534440  25.9148740
  28.5096380  49.6845910  26.6482180  19.9383190  40.1999020  28.4016230
  19.7586030  39.3024770  28.6818990  19.5363270  40.7470890  29.0763180
  28.7781690  42.4014880  26.3028540  29.1546510  41.5286760  26.1902210
  28.6801200  42.7373580  25.4118980  22.9086700  40.7740510  21.7645980
  23.0153450  41.6744240  22.0714740  21.9979060  40.7258480  21.4740630
  32.5605810  39.8965320  23.2356880  33.3815430  39.4061890  23.2782360
  32.5939890  40.4862980  23.9888720  20.5569860  42.6959520  27.0098570
  21.2379970  42.9597890  27.6285970  20.2417910  41.8560390  27.3436580
  24.7494430  43.7426880  26.0971160  25.2572650  44.2407850  26.7376180
  25.2807670  42.9662080  25.9210520  36.8505360  41.9132070  29.8000510
  36.1457530  42.3013780  29.2815620  37.1163280  42.6082360  30.4021440
  23.0330530  38.3825440  30.3634580  23.0348970  38.8997830  29.5580480
  22.2034840  37.9055620  30.3404510  29.4201620  48.4944750  21.8624480
  28.8018890  48.9594200  21.2987200  29.9324870  49.1872230  22.2793990
  24.2833380  48.0220620  28.5408080  23.9502760  48.6489540  29.1829150
  24.4600060  48.5482500  27.7609750  32.7967290  41.8365700  26.0084420
  32.0922860  42.1250590  26.5887530  33.1579450  42.6465810  25.6483980
  22.7145860  40.0935400  28.3705030  23.0562670  40.9377450  28.0758900
  21.7761670  40.2419140  28.4870370  23.4952480  49.9901420  30.3557260
  24.1126480  50.6652500  30.0741710  22.6345600  50.3989400  30.2644760
  18.7884820  49.1801280  19.2364110  18.4112800  49.6688380  18.5049010
  19.0457890  49.8526560  19.8670640  34.4130070  51.4540830  28.2711900
  33.7293590  52.1239940  28.2628570  34.9524360  51.6521480  27.5056760
  35.8654210  41.2820490  26.3993630  34.9179120  41.3159470  26.5309060
  36.1904200  42.0959440  26.7842990  26.3973750  37.5817670  24.6949620
  26.7048730  37.0264560  23.9785120  25.4674450  37.7162130  24.5122610
  31.9488810  53.2984960  26.9857080  31.9615970  52.8947250  26.1179340
  31.3964030  54.0732250  26.8818510  33.2434230  50.0201180  22.0747250
  33.1330560  49.0775510  22.1996670  33.2402480  50.3816820  22.9610010
  31.3474250  48.2014800  28.3139690  31.7643040  47.9874910  27.4793150
  32.0714070  48.4587590  28.8848310  28.7854510  45.6466500  21.4309740
  27.8583790  45.5803880  21.6598210  28.9379330  46.5846630  21.3164980
  28.7723590  41.9183500  18.4276900  27.8327260  42.0797460  18.5129360
  29.0906850  42.6369180  17.8812890  35.2936350  46.6002020  28.4055930
  34.4654980  46.6695110  27.9306060  35.8886830  47.1856330  27.9371760
  32.8151800  47.2086800  21.9344990  32.1964220  46.8706350  21.2871290
  32.7976250  46.5646560  22.6424180  32.2578360  43.3871340  29.3510800
  31.8449540  44.2125050  29.6050790  31.5254310  42.8016380  29.1587160
  24.3911150  46.1731240  24.2129470  23.9868150  45.4608490  23.7175370
  24.4774270  45.8284480  25.1017510  24.8592850  49.8598800  26.3768680
  24.5621140  49.2544270  25.6976460  25.8092670  49.8976110  26.2658040
  23.1039770  42.9474450  27.9928510  23.6554360  43.0569790  27.2181760
  23.6183280  43.3212050  28.7083740  32.9478460  53.4330670  30.0391780
  32.4709020  54.2402860  29.8464390  32.2640250  52.7809000  30.1917990
  23.9511280  49.5980490  33.0276480  23.0539810  49.8220460  33.2749880
  23.9764150  49.7215430  32.0787880  30.9916500  46.4473610  18.9417740
  31.4309780  45.6096040  18.7955560  31.7044920  47.0803010  19.0281880
  22.7782500  46.4693810  31.6033850  22.6390270  47.3416610  31.9721250
  21.8963860  46.1266620  31.4581790  29.1011880  51.3869680  22.9098980
  29.5407790  52.1294010  22.4954370  29.0398770  51.6296250  23.8337940
  24.5762850  52.4115510  33.8119000  24.5478280  52.8158460  32.9447430
  24.4127820  51.4825870  33.6490600  34.5733640  37.7016420  17.2558780
  34.2606300  37.7943250  18.1557850  35.3346110  38.2797450  17.2056210
  21.0915780  45.0676220  21.7136120  20.9713380  45.7938310  21.1017390
  20.7816670  44.2979130  21.2364030  36.5277670  53.1942610  35.1083170
  37.0037390  53.6725500  35.7872250  37.1484830  53.1260100  34.3828670
  18.7301150  48.2391360  27.5204760  18.8081570  48.3740130  26.5760480
  19.3442830  47.5307250  27.7132880  19.9748780  49.9391550  23.9310940
  19.5676860  50.0806140  23.0764540  20.8661790  49.6551710  23.7282150
  35.9310920  50.3855460  32.2683180  36.0573980  50.1467340  31.3500360
  35.9732300  49.5540000  32.7405260  29.7927660  54.0883460  30.8377990
  30.3072330  53.9991470  31.6400420  28.9496740  54.4343160  31.1305900
  31.7682060  54.3738800  20.2661990  31.6083200  54.0841740  21.1643820
  31.6028770  53.5978930  19.7307220  24.2470440  54.1537330  22.0433610
  24.0712920  53.2372870  21.8301410  23.3926180  54.5124620  22.2831410
  31.4708190  51.8826360  18.8259990  30.7773350  51.8803650  18.1662270
  32.2131050  51.4585680  18.3954160  31.0358120  53.5089070  22.9008480
  31.4915070  52.7278450  23.2147100  31.3750640  54.2195890  23.4449660
  18.7860670  49.2805530  30.0599220  18.9491710  48.8110890  29.2418590
  19.2513120  48.7729090  30.7248060  23.5579440  38.4111290  25.0959790
  23.1147590  39.1920830  24.7644310  24.1164430  38.7341180  25.8030730
  27.8449250  41.2779810  30.6995110  27.3828620  41.4862830  31.5115050
  27.4427360  40.4639160  30.3965780  29.9403470  43.9990510  33.9290560
  30.2656880  43.1654260  33.5892790  30.7283800  44.5219030  34.0768890
  26.6738260  38.0321990  19.9765620  26.0492440  38.0281860  20.7018930
  26.5868380  37.1652950  19.5801590  25.5955340  38.9558620  26.9549390
  25.8927670  39.8621450  26.8741410  26.1440900  38.4677400  26.3408960
  23.3493660  43.5344860  22.8241040  23.1234580  43.3182030  23.7287660
  22.5686190  43.9673320  22.4787010  30.5791420  43.5408230  21.4231690
  29.9800310  44.2644030  21.2395310  31.1271030  43.4785010  20.6408140
  25.7892870  44.4330440  33.4901310  25.6936470  43.4925170  33.3401710
  26.6324850  44.6545510  33.0949380  29.1856290  42.1771770  23.4534970
  29.5785860  42.4943970  22.6403660  29.5473140  41.2983650  23.5679490
  20.9203410  40.8444110  31.6435090  20.5266800  41.6919320  31.8507870
  20.2321810  40.2070480  31.8343730  27.4948460  40.9279080  34.7131830
  26.8046780  40.7351280  35.3477920  28.2380760  41.2113720  35.2456130
  18.2220460  38.7672570  25.6765170  17.9333510  39.3375430  26.3890150
  18.9666220  38.2877020  26.0396400  18.4090690  42.7092690  16.8867890
  18.3265360  43.6523450  17.0282880  18.0573750  42.5667600  16.0080240
  29.7711430  44.7677520  27.5485750  29.0392550  45.2764330  27.8975850
  29.3735770  43.9507500  27.2474530  26.2088820  41.4431720  25.9538240
  26.2124880  41.0021670  25.1042780  27.1039940  41.7649050  26.0610060
  22.0591200  41.3258210  24.9132450  21.7191250  41.8033440  25.6699500
  21.2968520  40.8723330  24.5533550  26.2708970  42.4443800  18.9445000
  26.3921790  42.4030280  19.8930820  25.8857480  43.3067950  18.7891730
  30.2337340  40.2211200  26.9608690  30.2510080  40.6719850  27.8050540
  29.9852920  39.3216840  27.1742130  25.2830470  44.7544940  18.3428300
  24.7147370  44.3063190  17.7164210  25.9919470  45.1137720  17.8093450
  20.3599650  48.6556960  32.2195030  19.9754440  48.0150630  32.8177990
  20.6711840  49.3593080  32.7889760  26.5096790  45.5033500  27.7003650
  26.8766920  45.0292070  28.4464990  26.3201850  46.3775070  28.0411990
  19.3737280  40.2477190  23.8297120  19.0884200  39.8832860  24.6675740
  19.3116140  39.5157650  23.2160260  24.2996160  44.5442140  30.0187860
  23.9953230  45.4234120  30.2438220  25.2542620  44.6041930  30.0545300
  22.8277950  48.7503130  20.6154710  22.0540210  48.2100750  20.4553430
  23.5572580  48.2309740  20.2772470  33.5865930  47.7468490  26.4081100
  34.3065050  48.2423780  26.0177210  33.3847750  47.0686380  25.7634970
  29.0475870  39.1406450  20.5510490  28.2340480  38.6419620  20.4755800
  28.8537820  39.9804700  20.1346840  28.9684730  47.8177550  32.2950100
  28.9022040  46.8973220  32.0407690  28.3389870  47.9152990  33.0094740
  31.7624260  43.5126100  18.8472650  32.6503880  43.8243330  18.6723990
  31.7329350  42.6398350  18.4553230  22.8715350  48.4183510  24.2533520
  23.3894020  47.6151770  24.1990410  22.4199370  48.3562650  25.0950350
  27.7584850  49.6849790  19.5260820  28.1000550  50.4292020  19.0304140
  26.9297560  49.9980910  19.8885650  20.3559890  45.3844880  31.1659220
  19.9974830  46.0498730  31.7532560  20.0614450  44.5528430  31.5371840
  23.5573010  45.8429120  34.0498770  23.2573150  45.9886300  33.1526590
  24.3284250  45.2834410  33.9572160  28.9001460  50.6398120  32.0453900
  28.9146000  49.7079080  31.8272810  28.1926560  50.7257880  32.6843670
  34.0338530  44.8237940  18.3152510  33.9502250  45.2552160  17.4648950
  34.7532720  45.2836290  18.7479330  35.1112670  47.2805460  31.3922480
  34.3860860  47.8734240  31.1951870  35.6388130  47.2729000  30.5935850
  35.0625780  51.6780200  21.0434640  34.4201940  51.0235820  21.3178360
  34.6756440  52.0835290  20.2675310  30.6412260  49.0065630  24.8906330
  30.9936080  48.4093760  24.2307700  29.7574590  48.6809860  25.0614580
  26.7275540  49.7663320  22.2976740  27.4146670  50.3132530  22.6784330
  25.9407960  50.3104050  22.3326350  18.8667940  45.3836140  17.7893820
  19.7362790  45.6660940  18.0729740  18.3758260  46.1972010  17.6742630
  26.0302750  46.7709350  21.9102100  26.4865530  47.5814600  22.1362290
  25.6790960  46.4532490  22.7420590  28.3335360  52.2815690  29.1394400
  28.9777580  52.4875070  29.8167820  28.6964800  51.5204090  28.6865250
  21.9314530  37.1147000  22.3824620  21.8029160  37.1064900  23.3309540
  21.1076550  37.4530090  22.0315630  29.6067440  50.2848040  27.8571850
  30.2489670  49.5841200  27.9704020  30.1316790  51.0646480  27.6768740
  33.4523160  50.5696660  17.5810990  33.2260740  49.8527100  18.1735630
  33.0619360  50.3209100  16.7432740  31.3805060  51.0842940  31.0607910
  31.7161300  51.6709630  31.7385830  30.4605400  50.9535650  31.2905700
  19.2339190  54.5963520  18.3555450  19.5936830  55.1952860  17.7012720
  19.0931530  55.1423410  19.1290480  18.9308460  38.8738120  31.8431320
  18.2166980  39.0735040  32.4483930  19.3503500  38.0977690  32.2146120
  33.0339410  48.4868600  19.2425150  32.7461110  48.9481290  20.0303030
  33.8291580  48.0266370  19.5109370  19.2181050  52.8618380  32.8297850
  19.3272170  51.9213120  32.6893240  18.5661610  53.1273130  32.1811580
  27.2093640  51.1334270  34.2295970  26.8890510  50.4143510  34.7741660
  26.5352000  51.8089340  34.3032030  25.2507810  51.9794720  19.1729120
  25.2417910  52.7124410  18.5573630  24.3306170  51.7326300  19.2656080
  20.8514450  47.2009610  19.9175880  20.2442400  47.9408510  19.9271180
  21.3263800  47.2908970  19.0914080  30.4247240  41.3660430  29.5932770
  30.7928060  40.5455640  29.9212340  29.5645440  41.4262320  30.0088420
  33.7909270  40.3217370  20.4020330  33.1622430  40.4263040  19.6878560
  33.2961190  40.5414150  21.1914210  28.2367410  52.0422960  17.8354310
  28.3379390  51.8386950  16.9056290  27.3369150  51.7881240  18.0402090
  25.7593300  42.6003320  21.8178210  25.0509450  43.0689660  22.2591820
  26.0437780  41.9425330  22.4523400  27.3849230  44.0200020  29.8170740
  27.8834480  44.4945840  30.4822590  27.5272180  43.0963540  30.0240770
  29.7908730  39.3253980  23.2574000  29.6676510  39.3440110  22.3083510
  30.7393290  39.3732920  23.3772400  26.8785520  54.5609280  22.5301980
  27.1327020  54.5230670  21.6081350  25.9298000  54.4342610  22.5230230
  23.9628320  40.9088400  19.1928920  24.8118850  41.3458550  19.1269110
  23.5959590  41.2208660  20.0200980  32.8838100  45.4801160  24.1060490
  31.9428240  45.4951390  24.2808180  33.1982170  44.6937120  24.5520790
  22.8619740  47.1620760  17.6664450  23.6283010  47.0502120  18.2289880
  22.9394430  46.4658730  17.0141220  21.5566500  44.5945830  18.3497340
  21.6370090  43.6473340  18.4614740  22.4486250  44.9252710  18.4558000
  34.8863680  52.6510010  25.7814750  35.0111100  53.4741180  26.2538560
  35.7529240  52.4400740  25.4338900  22.3581210  54.7441220  25.4531880
  23.0943690  54.1956680  25.7240450  22.7422130  55.6097230  25.3137870
  19.2426690  50.8114790  21.3273390  18.3166470  51.0535930  21.3178800
  19.7083120  51.6389050  21.2058140  21.3639490  53.9287290  34.6417460
  22.1652220  54.2499340  35.0552860  20.8491310  53.5682870  35.3637370
  25.4683520  53.9171530  17.2757450  26.2612130  54.2060360  16.8239240
  24.9487870  53.4863700  16.5969930  30.2004120  50.0367160  34.5892870
  29.5942280  50.0598760  33.8488620  29.8958230  49.3050200  35.1260120
  31.6304490  53.7647450  33.2002280  32.5826240  53.6805470  33.1502520
  31.4832710  54.4289160  33.8736070  34.5213690  53.1441660  18.6994190
  34.2355200  52.7306800  17.8848370  34.3233240  54.0729370  18.5794710
  19.0837300  46.4160750  33.5853510  19.5876320  45.8368030  34.1569740
  18.3444720  46.7000980  34.1229880  25.9860920  49.1374940  17.1399800
  25.8811560  48.5227290  17.8661180  25.8185140  48.6140830  16.3562810
  26.1375240  47.8231740  33.1189030  25.3720910  48.3916740  33.0343700
  26.3191200  47.5307950  32.2257260  29.2263650  48.1994970  17.7441790
  28.6773750  48.6464270  18.3884530  29.8482910  47.6944220  18.2679460
  33.2798590  49.5537070  33.6764050  34.0208060  49.8912830  33.1731510
  32.5171270  49.7229130  33.1233820  21.1160380  44.5590340  34.4803580
  21.1565720  44.2604210  35.3888810  21.9705880  44.9597950  34.3211100
  24.8938770  47.1585890  19.6407090  25.3155190  46.9925760  20.4838480
  25.0189610  46.3486120  19.1462230  23.0566190  43.1382440  32.4478070
  22.5262650  42.6473390  31.8201410  23.7254260  43.5666640  31.9136000
  27.4066410  46.1823500  16.8884190  27.9272070  45.4672520  16.5225340
  28.0534810  46.8209370  17.1884700  31.9544250  47.6051900  32.2119260
  32.3685270  47.7596980  33.0609680  31.0195250  47.7307120  32.3745040
  32.4266420  44.9448060  34.2158410  33.0087190  44.1900380  34.1278890
  32.6028190  45.4755500  33.4389890  23.5438490  40.1044810  32.5275360
  23.4495360  39.4865560  31.8026230  22.9635880  40.8311100  32.3005270
  26.3099930  38.6618050  29.5602750  25.8617230  38.6842310  28.7148300
  25.6765130  38.2637070  30.1573050  26.7159480  47.5572380  30.1815190
  27.1347590  48.4005110  30.0091430  25.7968110  47.6944420  29.9521970
  29.0523380  45.2888560  31.5653030  29.1719590  44.6929700  32.3047870
  29.9117380  45.3258250  31.1454330  31.3911280  45.8425750  30.1415540
  30.8646500  46.3668370  29.5380680  31.7342620  46.4753140  30.7725270
  23.7897670  43.2319120  16.5865250  23.5886730  42.3686480  16.9478590
  23.6189720  43.1452480  15.6486850  24.5666900  53.8625390  31.2972920
  24.0287990  54.5871450  30.9781620  24.8200860  53.3855730  30.5070260
  25.8192150  41.8309910  32.8228850  26.4091840  41.5225760  33.5106670
  25.0012390  41.3589660  32.9788750  31.2685980  38.0427350  19.1152130
  31.5488270  37.1995250  19.4711550  30.4951710  38.2750460  19.6290880
  22.5880470  40.3319740  16.5743130  22.8906370  40.3387170  15.6662280
  23.3275060  39.9817600  17.0710790  27.4229110  55.0976600  31.5559570
  27.3487810  56.0011740  31.8631940  26.5207950  54.7788500  31.5281640
  25.8065400  39.2754360  17.5599330  25.4587400  38.5978350  16.9801780
  26.0078170  38.8143870  18.3742720  27.9714440  54.2635110  19.1785930
  28.8665230  54.6020080  19.2004690  28.0032070  53.5414520  18.5510210
  21.6110600  49.6362160  17.4072930  22.0485470  50.1791830  18.0630510
  22.0958330  48.8109110  17.4169270  18.8256400  52.4251190  24.8593190
  19.1559410  51.5572250  24.6271830  19.2547400  52.6309710  25.6898150
  23.4218320  50.7560200  22.5195160  23.1213860  50.6325170  23.4199070
  23.3155810  49.8968790  22.1110890  19.3146610  53.2921780  27.5974820
  18.8777600  53.4722580  28.4298970  19.8824290  54.0496400  27.4556540
  34.9508790  52.7938780  31.8852130  34.3510780  52.8531340  31.1416050
  35.0802690  51.8543760  32.0148980  36.1910240  50.5356600  17.2221840
  35.3603200  50.6033250  17.6929070  36.3682070  51.4260720  16.9188700
  35.6466700  47.2804080  19.7256040  36.4085610  47.8500730  19.8315730
  35.6621070  46.7131280  20.4964350  19.1471040  45.8042010  23.9563700
  18.4919880  45.5353650  23.3123400  19.9848990  45.6946490  23.5065680
  36.6526670  48.1354180  24.5697970  37.0235500  47.3521500  24.1633940
  37.2928600  48.8243280  24.3915270  33.6360430  49.5190760  29.9828290
  32.8220270  49.9487920  30.2454080  34.0434630  50.1309170  29.3697340
  35.6985870  47.5738450  16.8828560  35.9734710  48.4817330  16.7547780
  35.5096610  47.5100980  17.8190550  32.0961480  40.5983300  18.1782190
  32.5146360  40.4114280  17.3378850  31.7897540  39.7462350  18.4885120
  35.5951210  45.5107440  21.8757990  35.2194810  44.7435370  21.4439280
  34.8654330  45.8930140  22.3632920  20.1846970  46.1894580  28.4967040
  20.5520010  46.1021980  29.3763060  19.6157790  45.4261130  28.3973900
  34.9850830  44.6578960  31.5097510  34.7536920  44.4291710  30.6095460
  35.2455380  45.5778510  31.4642400  19.7362970  43.1003670  32.4025460
  18.8419020  43.0670430  32.7419170  20.2760520  43.2990460  33.1676710
  18.3609120  43.0140940  19.8989030  17.4573200  43.2771140  19.7240690
  18.8449740  43.2852110  19.1188990  34.8702170  43.7364930  25.1765230
  35.3939650  43.2427580  24.5455400  35.4561590  43.8715290  25.9212800
  35.0491890  43.8204800  28.6984780  34.0994600  43.7868340  28.8129770
  35.2304900  44.7304910  28.4634550  20.9036330  42.0706480  17.8083410
  21.6128030  41.6489700  17.3230690  20.1876270  42.1381710  17.1766760
  20.5510490  38.1245810  16.8486060  21.2738620  38.6654750  17.1667280
  20.8235010  37.8509230  15.9727600  34.3602140  42.9938280  21.1157640
  34.8561260  42.7609150  21.9006520  34.1618210  42.1550120  20.6995280
  20.2402680  37.3752000  26.7508680  20.8878870  36.8249380  26.3103840
  20.6604520  37.6295150  27.5724490  35.7889300  41.6299230  23.6495320
  35.6788580  41.4755270  24.5877590  36.5496890  41.1020170  23.4070730
  36.6779570  39.4607150  16.8901460  37.6028880  39.3288330  16.6819750
  36.6555360  39.5399970  17.8437910  36.7518060  40.2317810  19.5158170
  35.9569560  40.1662930  20.0451080  36.9561340  41.1668450  19.5043520
  33.6936480  54.2709360  23.5096560  34.2895550  53.9493930  22.8330980
  33.9514630  53.7981180  24.3009830  19.9934680  37.5307670  29.4934000
  19.6449500  37.9871490  30.2592180  19.6622380  36.6364800  29.5756430
  21.5999050  50.7027270  33.6587190  21.5568680  50.3320180  34.5401650
  21.7310060  51.6404840  33.7989010  25.3005080  52.2586860  29.2596910
  25.0596440  52.5261420  28.3727430  26.2407720  52.4292590  29.3147770
  27.5059500  38.7219550  33.0153420  27.4448390  39.3141380  33.7648830
  28.4459880  38.6145510  32.8703680  36.5609240  54.2781240  30.0607550
  36.0667520  54.6750110  29.3434680  35.9522530  53.6530450  30.4544830
  20.6655320  37.0583870  32.7684770  21.2138310  36.8771920  32.0050880
  20.7310630  36.2677980  33.3041080  21.4387080  53.6489520  30.7784970
  20.8447400  53.5174220  31.5175010  21.4310920  52.8127660  30.3127070
  30.8842100  36.9421750  28.9815000  30.0101940  37.2756860  28.7787930
  30.7752850  36.4694930  29.8066870  34.2448690  54.9204660  27.3394290
  33.7851660  55.6720470  26.9652310  33.6161150  54.2011130  27.2809090
  21.0699310  51.0147900  29.7293010  20.3433370  50.3953190  29.6618960
  21.1308460  51.4088510  28.8591090  24.6744410  53.2292900  26.5142420
  25.1909430  52.6180260  25.9890680  25.3241790  53.7321680  27.0053430
  27.4139910  54.1201390  27.3411400  27.7017720  53.8655690  26.4644410
  27.9263130  53.5678750  27.9316970  28.6316920  37.8591590  27.9207910
  27.8488710  38.3337090  28.2004670  28.3379850  36.9546420  27.8121090
  33.1837990  38.5614690  25.9657000  33.6246080  38.5059790  25.1178600
  32.9145580  39.4772700  26.0367180  35.0476560  38.1929930  23.9765820
  34.9864960  37.2491150  23.8296840  35.8268590  38.3010020  24.5219280
  19.3529310  54.3322290  22.9389770  19.1851350  53.6992970  23.6371660
  18.4863820  54.5381690  22.5883960  19.9757330  38.1639070  20.4421630
  20.7336690  38.2767950  19.8685660  19.5134500  39.0008270  20.3965060
  26.5171140  40.2778340  23.4323940  25.7045650  39.9035230  23.0919820
  27.0212780  39.5223420  23.7345130  31.0196120  36.9420790  24.6707010
  31.6225490  37.5141000  25.1455530  30.2789110  37.5060230  24.4480910
  34.1630720  37.3442350  19.9447290  34.3581350  38.2425800  20.2114720
  33.3760590  37.1129430  20.4380240  20.9592010  53.0255520  20.3839910
  20.4339630  53.4063550  19.6801870  20.8836590  53.6506290  21.1049620
  22.3482480  38.6903120  18.9823600  22.8775240  37.9032920  18.8531550
  22.9810800  39.3694310  19.2159130  24.5420320  38.4278260  22.0368990
  23.9123060  37.7265570  22.2039120  24.0025460  39.1882390  21.8202150
  27.4812270  55.0417490  34.7079600  28.4079580  54.8061760  34.7515560
  27.4662700  55.8689490  34.2265630  35.7157330  54.5843060  21.7053850
  35.8909520  53.8980800  21.0614770  35.0178900  55.1090110  21.3130520
  24.6675880  37.7062240  34.4721480  24.3860150  38.2095840  33.7082300
  25.0495580  36.9083990  34.1063610  23.5584980  54.9737900  19.2589160
  24.2903800  54.6897180  18.7113050  23.8178650  54.7351180  20.1488540
  22.7199770  51.0902630  19.2635490  22.0908650  51.5587730  19.8121320
  22.8347600  50.2451850  19.6981680  34.0489830  54.2687350  34.5320640
  34.8415150  53.7736580  34.3246600  34.3422980  54.9477490  35.1396250
  30.1749490  45.1408290   5.4136690  30.0943540  44.2262900   5.1428400
  29.7613910  45.6375360   4.7076400  28.3067530  46.9187310   7.2945960
  27.5309630  46.4387750   7.5844530  28.9580460  46.2392960   7.1202120
  22.3233360  47.2307120   8.1721720  21.4918240  46.9755830   8.5718230
  22.9314340  47.3017890   8.9079640  32.3274960  51.3247500   6.0745090
  31.8656490  50.5534740   6.4032260  33.1400510  51.3513570   6.5797540
  22.3034620  51.2647210   8.3679740  22.6062660  50.3744950   8.1889960
  23.0478210  51.8217430   8.1401990  18.6958320  44.7914660   7.8403810
  19.2674430  44.0236860   7.8407450  18.6959860  45.0903420   6.9310420
  28.5538270  53.6105510   5.6949080  27.9349710  54.0663010   5.1243520
  29.4090050  53.7656970   5.2938780  27.7476520  49.5944500   7.3016120
  27.6784800  48.6534440   7.1405250  28.5096380  49.6845910   7.8738690
  19.9383190  40.1999020   9.6272740  19.7586030  39.3024770   9.9075500
  19.5363270  40.7470890  10.3019690  28.7781690  42.4014880   7.5285050
  29.1546510  41.5286760   7.4158720  28.6801200  42.7373580   6.6375490
  22.9086700  40.7740510   2.9902490  23.0153450  41.6744240   3.2971250
  21.9979060  40.7258480   2.6997140  32.5605810  39.8965320   4.4613390
  33.3815430  39.4061890   4.5038870  32.5939890  40.4862980   5.2145230
  20.5569860  42.6959520   8.2355080  21.2379970  42.9597890   8.8542480
  20.2417910  41.8560390   8.5693090  24.7494430  43.7426880   7.3227670
  25.2572650  44.2407850   7.9632690  25.2807670  42.9662080   7.1467030
  36.8505360  41.9132070  11.0257020  36.1457530  42.3013780  10.5072130
  37.1163280  42.6082360  11.6277950  23.0330530  38.3825440  11.5891090
  23.0348970  38.8997830  10.7836990  22.2034840  37.9055620  11.5661020
  29.4201620  48.4944750   3.0880990  28.8018890  48.9594200   2.5243710
  29.9324870  49.1872230   3.5050500  24.2833380  48.0220620   9.7664590
  23.9502760  48.6489540  10.4085660  24.4600060  48.5482500   8.9866260
  32.7967290  41.8365700   7.2340930  32.0922860  42.1250590   7.8144040
  33.1579450  42.6465810   6.8740490  22.7145860  40.0935400   9.5961540
  23.0562670  40.9377450   9.3015410  21.7761670  40.2419140   9.7126880
  23.4952480  49.9901420  11.5813770  24.1126480  50.6652500  11.2998220
  22.6345600  50.3989400  11.4901270  34.4130070  51.4540830   9.4968410
  33.7293590  52.1239940   9.4885080  34.9524360  51.6521480   8.7313270
  35.8654210  41.2820490   7.6250140  34.9179120  41.3159470   7.7565570
  36.1904200  42.0959440   8.0099500  26.3973750  37.5817670   5.9206130
  26.7048730  37.0264560   5.2041630  25.4674450  37.7162130   5.7379120
  31.9488810  53.2984960   8.2113590  31.9615970  52.8947250   7.3435850
  31.3964030  54.0732250   8.1075020  33.2434230  50.0201180   3.3003760
  33.1330560  49.0775510   3.4253180  33.2402480  50.3816820   4.1866520
  31.3474250  48.2014800   9.5396200  31.7643040  47.9874910   8.7049660
  32.0714070  48.4587590  10.1104820  28.7854510  45.6466500   2.6566250
  27.8583790  45.5803880   2.8854720  28.9379330  46.5846630   2.5421490
  35.2936350  46.6002020   9.6312440  34.4654980  46.6695110   9.1562570
  35.8886830  47.1856330   9.1628270  32.8151800  47.2086800   3.1601500
  32.1964220  46.8706350   2.5127800  32.7976250  46.5646560   3.8680690
  32.2578360  43.3871340  10.5767310  31.8449540  44.2125050  10.8307300
  31.5254310  42.8016380  10.3843670  24.3911150  46.1731240   5.4385980
  23.9868150  45.4608490   4.9431880  24.4774270  45.8284480   6.3274020
  24.8592850  49.8598800   7.6025190  24.5621140  49.2544270   6.9232970
  25.8092670  49.8976110   7.4914550  23.1039770  42.9474450   9.2185020
  23.6554360  43.0569790   8.4438270  23.6183280  43.3212050   9.9340250
  32.9478460  53.4330670  11.2648290  32.4709020  54.2402860  11.0720900
  32.2640250  52.7809000  11.4174500  23.9511280  49.5980490  14.2532990
  23.0539810  49.8220460  14.5006390  23.9764150  49.7215430  13.3044390
  22.7782500  46.4693810  12.8290360  22.6390270  47.3416610  13.1977760
  21.8963860  46.1266620  12.6838300  29.1011880  51.3869680   4.1355490
  29.5407790  52.1294010   3.7210880  29.0398770  51.6296250   5.0594450
  24.5762850  52.4115510  15.0375510  24.5478280  52.8158460  14.1703940
  24.4127820  51.4825870  14.8747110  21.0915780  45.0676220   2.9392630
  20.9713380  45.7938310   2.3273900  20.7816670  44.2979130   2.4620540
  36.5277670  53.1942610  16.3339680  37.0037390  53.6725500  17.0128760
  37.1484830  53.1260100  15.6085180  18.7301150  48.2391360   8.7461270
  18.8081570  48.3740130   7.8016990  19.3442830  47.5307250   8.9389390
  19.9748780  49.9391550   5.1567450  19.5676860  50.0806140   4.3021050
  20.8661790  49.6551710   4.9538660  35.9310920  50.3855460  13.4939690
  36.0573980  50.1467340  12.5756870  35.9732300  49.5540000  13.9661770
  29.7927660  54.0883460  12.0634500  30.3072330  53.9991470  12.8656930
  28.9496740  54.4343160  12.3562410  24.2470440  54.1537330   3.2690120
  24.0712920  53.2372870   3.0557920  23.3926180  54.5124620   3.5087920
  31.0358120  53.5089070   4.1264990  31.4915070  52.7278450   4.4403610
  31.3750640  54.2195890   4.6706170  35.7834930  42.4387920  14.4589430
  35.1679200  42.9467590  13.9304890  35.4631350  41.5386250  14.4015370
  18.7860670  49.2805530  11.2855730  18.9491710  48.8110890  10.4675100
  19.2513120  48.7729090  11.9504570  23.5579440  38.4111290   6.3216300
  23.1147590  39.1920830   5.9900820  24.1164430  38.7341180   7.0287240
  27.8449250  41.2779810  11.9251620  27.3828620  41.4862830  12.7371560
  27.4427360  40.4639160  11.6222290  32.8453760  42.4988760  13.0548280
  31.9947350  42.1994510  13.3757350  32.6855550  42.7430770  12.1432100
  29.9403470  43.9990510  15.1547070  30.2656880  43.1654260  14.8149300
  30.7283800  44.5219030  15.3025400  25.5955340  38.9558620   8.1805900
  25.8927670  39.8621450   8.0997920  26.1440900  38.4677400   7.5665470
  23.3493660  43.5344860   4.0497550  23.1234580  43.3182030   4.9544170
  22.5686190  43.9673320   3.7043520  30.5791420  43.5408230   2.6488200
  29.9800310  44.2644030   2.4651820  31.1271030  43.4785010   1.8664650
  25.7892870  44.4330440  14.7157820  25.6936470  43.4925170  14.5658220
  26.6324850  44.6545510  14.3205890  29.1856290  42.1771770   4.6791480
  29.5785860  42.4943970   3.8660170  29.5473140  41.2983650   4.7936000
  20.9203410  40.8444110  12.8691600  20.5266800  41.6919320  13.0764380
  20.2321810  40.2070480  13.0600240  27.4948460  40.9279080  15.9388340
  26.8046780  40.7351280  16.5734430  28.2380760  41.2113720  16.4712640
  18.2220460  38.7672570   6.9021680  17.9333510  39.3375430   7.6146660
  18.9666220  38.2877020   7.2652910  29.7711430  44.7677520   8.7742260
  29.0392550  45.2764330   9.1232360  29.3735770  43.9507500   8.4731040
  26.2088820  41.4431720   7.1794750  26.2124880  41.0021670   6.3299290
  27.1039940  41.7649050   7.2866570  22.0591200  41.3258210   6.1388960
  21.7191250  41.8033440   6.8956010  21.2968520  40.8723330   5.7790060
  30.2337340  40.2211200   8.1865200  30.2510080  40.6719850   9.0307050
  29.9852920  39.3216840   8.3998640  33.6608090  37.6343380  14.0251580
  33.9853860  36.9033040  14.5509560  33.6964600  37.3157020  13.1232570
  20.3599650  48.6556960  13.4451540  19.9754440  48.0150630  14.0434500
  20.6711840  49.3593080  14.0146270  26.5096790  45.5033500   8.9260160
  26.8766920  45.0292070   9.6721500  26.3201850  46.3775070   9.2668500
  19.3737280  40.2477190   5.0553630  19.0884200  39.8832860   5.8932250
  19.3116140  39.5157650   4.4416770  24.2996160  44.5442140  11.2444370
  23.9953230  45.4234120  11.4694730  25.2542620  44.6041930  11.2801810
  22.8277950  48.7503130   1.8411220  22.0540210  48.2100750   1.6809940
  23.5572580  48.2309740   1.5028980  33.5865930  47.7468490   7.6337610
  34.3065050  48.2423780   7.2433720  33.3847750  47.0686380   6.9891480
  29.0475870  39.1406450   1.7767000  28.2340480  38.6419620   1.7012310
  28.8537820  39.9804700   1.3603350  28.9684730  47.8177550  13.5206610
  28.9022040  46.8973220  13.2664200  28.3389870  47.9152990  14.2351250
  22.8715350  48.4183510   5.4790030  23.3894020  47.6151770   5.4246920
  22.4199370  48.3562650   6.3206860  20.3559890  45.3844880  12.3915730
  19.9974830  46.0498730  12.9789070  20.0614450  44.5528430  12.7628350
  23.5573010  45.8429120  15.2755280  23.2573150  45.9886300  14.3783100
  24.3284250  45.2834410  15.1828670  28.9001460  50.6398120  13.2710410
  28.9146000  49.7079080  13.0529320  28.1926560  50.7257880  13.9100180
  35.1112670  47.2805460  12.6178990  34.3860860  47.8734240  12.4208380
  35.6388130  47.2729000  11.8192360  35.0625780  51.6780200   2.2691150
  34.4201940  51.0235820   2.5434870  34.6756440  52.0835290   1.4931820
  30.6412260  49.0065630   6.1162840  30.9936080  48.4093760   5.4564210
  29.7574590  48.6809860   6.2871090  26.7275540  49.7663320   3.5233250
  27.4146670  50.3132530   3.9040840  25.9407960  50.3104050   3.5582860
  26.0302750  46.7709350   3.1358610  26.4865530  47.5814600   3.3618800
  25.6790960  46.4532490   3.9677100  28.3335360  52.2815690  10.3650910
  28.9777580  52.4875070  11.0424330  28.6964800  51.5204090   9.9121760
  21.9314530  37.1147000   3.6081130  21.8029160  37.1064900   4.5566050
  21.1076550  37.4530090   3.2572140  29.6067440  50.2848040   9.0828360
  30.2489670  49.5841200   9.1960530  30.1316790  51.0646480   8.9025250
  31.3805060  51.0842940  12.2864420  31.7161300  51.6709630  12.9642340
  30.4605400  50.9535650  12.5162210  18.9308460  38.8738120  13.0687830
  18.2166980  39.0735040  13.6740440  19.3503500  38.0977690  13.4402630
  19.2181050  52.8618380  14.0554360  19.3272170  51.9213120  13.9149750
  18.5661610  53.1273130  13.4068090  27.2093640  51.1334270  15.4552480
  26.8890510  50.4143510  15.9998170  26.5352000  51.8089340  15.5288540
  30.4247240  41.3660430  10.8189280  30.7928060  40.5455640  11.1468850
  29.5645440  41.4262320  11.2344930  25.7593300  42.6003320   3.0434720
  25.0509450  43.0689660   3.4848330  26.0437780  41.9425330   3.6779910
  27.3849230  44.0200020  11.0427250  27.8834480  44.4945840  11.7079100
  27.5272180  43.0963540  11.2497280  29.7908730  39.3253980   4.4830510
  29.6676510  39.3440110   3.5340020  30.7393290  39.3732920   4.6028910
  26.8785520  54.5609280   3.7558490  27.1327020  54.5230670   2.8337860
  25.9298000  54.4342610   3.7486740  34.5916090  40.2367980  11.8855640
  34.0889690  40.9773380  12.2249450  35.4072750  40.6251980  11.5692430
  32.8838100  45.4801160   5.3317000  31.9428240  45.4951390   5.5064690
  33.1982170  44.6937120   5.7777300  34.8863680  52.6510010   7.0071260
  35.0111100  53.4741180   7.4795070  35.7529240  52.4400740   6.6595410
  22.3581210  54.7441220   6.6788390  23.0943690  54.1956680   6.9496960
  22.7422130  55.6097230   6.5394380  19.2426690  50.8114790   2.5529900
  18.3166470  51.0535930   2.5435310  19.7083120  51.6389050   2.4314650
  21.3639490  53.9287290  15.8673970  22.1652220  54.2499340  16.2809370
  20.8491310  53.5682870  16.5893880  30.2004120  50.0367160  15.8149380
  29.5942280  50.0598760  15.0745130  29.8958230  49.3050200  16.3516630
  31.6304490  53.7647450  14.4258790  32.5826240  53.6805470  14.3759030
  31.4832710  54.4289160  15.0992580  19.0837300  46.4160750  14.8110020
  19.5876320  45.8368030  15.3826250  18.3444720  46.7000980  15.3486390
  26.1375240  47.8231740  14.3445540  25.3720910  48.3916740  14.2600210
  26.3191200  47.5307950  13.4513770  33.2798590  49.5537070  14.9020560
  34.0208060  49.8912830  14.3988020  32.5171270  49.7229130  14.3490330
  21.1160380  44.5590340  15.7060090  21.1565720  44.2604210  16.6145320
  21.9705880  44.9597950  15.5467610  23.0566190  43.1382440  13.6734580
  22.5262650  42.6473390  13.0457920  23.7254260  43.5666640  13.1392510
  31.9544250  47.6051900  13.4375770  32.3685270  47.7596980  14.2866190
  31.0195250  47.7307120  13.6001550  32.4266420  44.9448060  15.4414920
  33.0087190  44.1900380  15.3535400  32.6028190  45.4755500  14.6646400
  23.5438490  40.1044810  13.7531870  23.4495360  39.4865560  13.0282740
  22.9635880  40.8311100  13.5261780  26.3099930  38.6618050  10.7859260
  25.8617230  38.6842310   9.9404810  25.6765130  38.2637070  11.3829560
  26.7159480  47.5572380  11.4071700  27.1347590  48.4005110  11.2347940
  25.7968110  47.6944420  11.1778480  29.0523380  45.2888560  12.7909540
  29.1719590  44.6929700  13.5304380  29.9117380  45.3258250  12.3710840
  31.3911280  45.8425750  11.3672050  30.8646500  46.3668370  10.7637190
  31.7342620  46.4753140  11.9981780  24.5666900  53.8625390  12.5229430
  24.0287990  54.5871450  12.2038130  24.8200860  53.3855730  11.7326770
  25.8192150  41.8309910  14.0485360  26.4091840  41.5225760  14.7363180
  25.0012390  41.3589660  14.2045260  30.6385580  41.4475720  14.2818380
  29.9501100  40.7857260  14.2168370  31.3591600  41.0013990  14.7266840
  27.4229110  55.0976600  12.7816080  27.3487810  56.0011740  13.0888450
  26.5207950  54.7788500  12.7538150  18.8256400  52.4251190   6.0849700
  19.1559410  51.5572250   5.8528340  19.2547400  52.6309710   6.9154660
  23.4218320  50.7560200   3.7451670  23.1213860  50.6325170   4.6455580
  23.3155810  49.8968790   3.3367400  19.3146610  53.2921780   8.8231330
  18.8777600  53.4722580   9.6555480  19.8824290  54.0496400   8.6813050
  34.9508790  52.7938780  13.1108640  34.3510780  52.8531340  12.3672560
  35.0802690  51.8543760  13.2405490  19.1471040  45.8042010   5.1820210
  18.4919880  45.5353650   4.5379910  19.9848990  45.6946490   4.7322190
  36.6526670  48.1354180   5.7954480  37.0235500  47.3521500   5.3890450
  37.2928600  48.8243280   5.6171780  33.6360430  49.5190760  11.2084800
  32.8220270  49.9487920  11.4710590  34.0434630  50.1309170  10.5953850
  35.5951210  45.5107440   3.1014500  35.2194810  44.7435370   2.6695790
  34.8654330  45.8930140   3.5889430  20.1846970  46.1894580   9.7223550
  20.5520010  46.1021980  10.6019570  19.6157790  45.4261130   9.6230410
  34.9850830  44.6578960  12.7354020  34.7536920  44.4291710  11.8351970
  35.2455380  45.5778510  12.6898910  19.7362970  43.1003670  13.6281970
  18.8419020  43.0670430  13.9675680  20.2760520  43.2990460  14.3933220
  33.4238900  39.8835390  15.5133720  34.3009080  39.8918790  15.8967720
  33.4359740  39.1466230  14.9026070  34.8702170  43.7364930   6.4021740
  35.3939650  43.2427580   5.7711910  35.4561590  43.8715290   7.1469310
  35.0491890  43.8204800   9.9241290  34.0994600  43.7868340  10.0386280
  35.2304900  44.7304910   9.6891060  34.3602140  42.9938280   2.3414150
  34.8561260  42.7609150   3.1263030  34.1618210  42.1550120   1.9251790
  20.2402680  37.3752000   7.9765190  20.8878870  36.8249380   7.5360350
  20.6604520  37.6295150   8.7981000  35.7889300  41.6299230   4.8751830
  35.6788580  41.4755270   5.8134100  36.5496890  41.1020170   4.6327240
  34.1355020  37.5693360  11.3334830  34.7727240  38.1827500  11.6994020
  34.2829910  37.6054020  10.3884060  33.6936480  54.2709360   4.7353070
  34.2895550  53.9493930   4.0587490  33.9514630  53.7981180   5.5266340
  19.9934680  37.5307670  10.7190510  19.6449500  37.9871490  11.4848690
  19.6622380  36.6364800  10.8012940  21.5999050  50.7027270  14.8843700
  21.5568680  50.3320180  15.7658160  21.7310060  51.6404840  15.0245520
  25.3005080  52.2586860  10.4853420  25.0596440  52.5261420   9.5983940
  26.2407720  52.4292590  10.5404280  27.5059500  38.7219550  14.2409930
  27.4448390  39.3141380  14.9905340  28.4459880  38.6145510  14.0960190
  30.1434060  38.3789610  13.8802220  30.7574470  38.6968900  13.2183300
  30.6883620  37.8938200  14.4998080  36.5609240  54.2781240  11.2864060
  36.0667520  54.6750110  10.5691190  35.9522530  53.6530450  11.6801340
  20.6655320  37.0583870  13.9941280  21.2138310  36.8771920  13.2307390
  20.7310630  36.2677980  14.5297590  21.4387080  53.6489520  12.0041480
  20.8447400  53.5174220  12.7431520  21.4310920  52.8127660  11.5383580
  30.8842100  36.9421750  10.2071510  30.0101940  37.2756860  10.0044440
  30.7752850  36.4694930  11.0323380  31.7914080  39.1492620  11.5913230
  31.4627440  38.3344380  11.2114960  32.7396380  39.1062430  11.4678920
  34.2448690  54.9204660   8.5650800  33.7851660  55.6720470   8.1908820
  33.6161150  54.2011130   8.5065600  21.0699310  51.0147900  10.9549520
  20.3433370  50.3953190  10.8875470  21.1308460  51.4088510  10.0847600
  24.6744410  53.2292900   7.7398930  25.1909430  52.6180260   7.2147190
  25.3241790  53.7321680   8.2309940  27.4139910  54.1201390   8.5667910
  27.7017720  53.8655690   7.6900920  27.9263130  53.5678750   9.1573480
  28.6316920  37.8591590   9.1464420  27.8488710  38.3337090   9.4261180
  28.3379850  36.9546420   9.0377600  33.1837990  38.5614690   7.1913510
  33.6246080  38.5059790   6.3435110  32.9145580  39.4772700   7.2623690
  35.0476560  38.1929930   5.2022330  34.9864960  37.2491150   5.0553350
  35.8268590  38.3010020   5.7475790  19.3529310  54.3322290   4.1646280
  19.1851350  53.6992970   4.8628170  18.4863820  54.5381690   3.8140470
  26.5171140  40.2778340   4.6580450  25.7045650  39.9035230   4.3176330
  27.0212780  39.5223420   4.9601640  31.0196120  36.9420790   5.8963520
  31.6225490  37.5141000   6.3712040  30.2789110  37.5060230   5.6737420
  24.5420320  38.4278260   3.2625500  23.9123060  37.7265570   3.4295630
  24.0025460  39.1882390   3.0458660  27.4812270  55.0417490  15.9336110
  28.4079580  54.8061760  15.9772070  27.4662700  55.8689490  15.4522140
  35.7157330  54.5843060   2.9310360  35.8909520  53.8980800   2.2871280
  35.0178900  55.1090110   2.5387030  24.6675880  37.7062240  15.6977990
  24.3860150  38.2095840  14.9338810  25.0495580  36.9083990  15.3320120
  31.2691340  37.1215820  16.2758460  31.1556790  37.4410430  17.1709980
  32.0861080  37.5228330  15.9795740  34.0489830  54.2687350  15.7577150
  34.8415150  53.7736580  15.5503110  34.3422980  54.9477490  16.3652760
  30.1749490  26.3664800  61.7367160  30.0943540  25.4519410  61.4658870
  29.7613910  26.8631870  61.0306870  28.3067530  28.1443820  63.6176430
  27.5309630  27.6644260  63.9075000  28.9580460  27.4649470  63.4432590
  22.3233360  28.4563630  64.4952190  21.4918240  28.2012340  64.8948700
  22.9314340  28.5274400  65.2310110  32.3274960  32.5504010  62.3975560
  31.8656490  31.7791250  62.7262730  33.1400510  32.5770080  62.9028010
  22.3034620  32.4903720  64.6910210  22.6062660  31.6001460  64.5120430
  23.0478210  33.0473940  64.4632460  20.7325310  23.4165520  58.2794580
  19.8442010  23.7581490  58.1774460  21.0166500  23.2165840  57.3875410
  18.6958320  26.0171170  64.1634280  19.2674430  25.2493370  64.1637920
  18.6959860  26.3159930  63.2540890  28.5538270  34.8362020  62.0179550
  27.9349710  35.2919520  61.4473990  29.4090050  34.9913480  61.6169250
  27.7476520  30.8201010  63.6246590  27.6784800  29.8790950  63.4635720
  28.5096380  30.9102420  64.1969160  19.9383190  21.4255530  65.9503210
  19.7586030  20.5281280  66.2305970  19.5363270  21.9727400  66.6250160
  28.7781690  23.6271390  63.8515520  29.1546510  22.7543270  63.7389190
  28.6801200  23.9630090  62.9605960  22.9086700  21.9997020  59.3132960
  23.0153450  22.9000750  59.6201720  21.9979060  21.9514990  59.0227610
  32.5605810  21.1221830  60.7843860  33.3815430  20.6318400  60.8269340
  32.5939890  21.7119490  61.5375700  20.5569860  23.9216030  64.5585550
  21.2379970  24.1854400  65.1772950  20.2417910  23.0816900  64.8923560
  24.7494430  24.9683390  63.6458140  25.2572650  25.4664360  64.2863160
  25.2807670  24.1918590  63.4697500  36.8505360  23.1388580  67.3487490
  36.1457530  23.5270290  66.8302600  37.1163280  23.8338870  67.9508420
  23.0330530  19.6081950  67.9121560  23.0348970  20.1254340  67.1067460
  22.2034840  19.1312130  67.8891490  29.4201620  29.7201260  59.4111460
  28.8018890  30.1850710  58.8474180  29.9324870  30.4128740  59.8280970
  24.2833380  29.2477130  66.0895060  23.9502760  29.8746050  66.7316130
  24.4600060  29.7739010  65.3096730  32.7967290  23.0622210  63.5571400
  32.0922860  23.3507100  64.1374510  33.1579450  23.8722320  63.1970960
  22.7145860  21.3191910  65.9192010  23.0562670  22.1633960  65.6245880
  21.7761670  21.4675650  66.0357350  23.4952480  31.2157930  67.9044240
  24.1126480  31.8909010  67.6228690  22.6345600  31.6245910  67.8131740
  18.7884820  30.4057790  56.7851090  18.4112800  30.8944890  56.0535990
  19.0457890  31.0783070  57.4157620  34.4130070  32.6797340  65.8198880
  33.7293590  33.3496450  65.8115550  34.9524360  32.8777990  65.0543740
  35.8654210  22.5077000  63.9480610  34.9179120  22.5415980  64.0796040
  36.1904200  23.3215950  64.3329970  26.3973750  18.8074180  62.2436600
  26.7048730  18.2521070  61.5272100  25.4674450  18.9418640  62.0609590
  31.9488810  34.5241470  64.5344060  31.9615970  34.1203760  63.6666320
  31.3964030  35.2988760  64.4305490  33.2434230  31.2457690  59.6234230
  33.1330560  30.3032020  59.7483650  33.2402480  31.6073330  60.5096990
  31.3474250  29.4271310  65.8626670  31.7643040  29.2131420  65.0280130
  32.0714070  29.6844100  66.4335290  28.7854510  26.8723010  58.9796720
  27.8583790  26.8060390  59.2085190  28.9379330  27.8103140  58.8651960
  28.7723590  23.1440010  55.9763880  27.8327260  23.3053970  56.0616340
  29.0906850  23.8625690  55.4299870  35.2936350  27.8258530  65.9542910
  34.4654980  27.8951620  65.4793040  35.8886830  28.4112840  65.4858740
  32.8151800  28.4343310  59.4831970  32.1964220  28.0962860  58.8358270
  32.7976250  27.7903070  60.1911160  32.2578360  24.6127850  66.8997780
  31.8449540  25.4381560  67.1537770  31.5254310  24.0272890  66.7074140
  24.3911150  27.3987750  61.7616450  23.9868150  26.6865000  61.2662350
  24.4774270  27.0540990  62.6504490  24.8592850  31.0855310  63.9255660
  24.5621140  30.4800780  63.2463440  25.8092670  31.1232620  63.8145020
  23.1039770  24.1730960  65.5415490  23.6554360  24.2826300  64.7668740
  23.6183280  24.5468560  66.2570720  32.9478460  34.6587180  67.5878760
  32.4709020  35.4659370  67.3951370  32.2640250  34.0065510  67.7404970
  30.9916500  27.6730120  56.4904720  31.4309780  26.8352550  56.3442540
  31.7044920  28.3059520  56.5768860  29.1011880  32.6126190  60.4585960
  29.5407790  33.3550520  60.0441350  29.0398770  32.8552760  61.3824920
  34.5733640  18.9272930  54.8045760  34.2606300  19.0199760  55.7044830
  35.3346110  19.5053960  54.7543190  21.0915780  26.2932730  59.2623100
  20.9713380  27.0194820  58.6504370  20.7816670  25.5235640  58.7851010
  18.7301150  29.4647870  65.0691740  18.8081570  29.5996640  64.1247460
  19.3442830  28.7563760  65.2619860  19.9748780  31.1648060  61.4797920
  19.5676860  31.3062650  60.6251520  20.8661790  30.8808220  61.2769130
  31.7682060  35.5995310  57.8148970  31.6083200  35.3098250  58.7130800
  31.6028770  34.8235440  57.2794200  24.2470440  35.3793840  59.5920590
  24.0712920  34.4629380  59.3788390  23.3926180  35.7381130  59.8318390
  31.4708190  33.1082870  56.3746970  30.7773350  33.1060160  55.7149250
  32.2131050  32.6842190  55.9441140  31.0358120  34.7345580  60.4495460
  31.4915070  33.9534960  60.7634080  31.3750640  35.4452400  60.9936640
  18.7860670  30.5062040  67.6086200  18.9491710  30.0367400  66.7905570
  19.2513120  29.9985600  68.2735040  23.5579440  19.6367800  62.6446770
  23.1147590  20.4177340  62.3131290  24.1164430  19.9597690  63.3517710
  27.8449250  22.5036320  68.2482090  27.3828620  22.7119340  69.0602030
  27.4427360  21.6895670  67.9452760  26.6738260  19.2578500  57.5252600
  26.0492440  19.2538370  58.2505910  26.5868380  18.3909460  57.1288570
  25.5955340  20.1815130  64.5036370  25.8927670  21.0877960  64.4228390
  26.1440900  19.6933910  63.8895940  23.3493660  24.7601370  60.3728020
  23.1234580  24.5438540  61.2774640  22.5686190  25.1929830  60.0273990
  30.5791420  24.7664740  58.9718670  29.9800310  25.4900540  58.7882290
  31.1271030  24.7041520  58.1895120  29.1856290  23.4028280  61.0021950
  29.5785860  23.7200480  60.1890640  29.5473140  22.5240160  61.1166470
  18.2220460  19.9929080  63.2252150  17.9333510  20.5631940  63.9377130
  18.9666220  19.5133530  63.5883380  18.4090690  23.9349200  54.4354870
  18.3265360  24.8779960  54.5769860  18.0573750  23.7924110  53.5567220
  29.7711430  25.9934030  65.0972730  29.0392550  26.5020840  65.4462830
  29.3735770  25.1764010  64.7961510  26.2088820  22.6688230  63.5025220
  26.2124880  22.2278180  62.6529760  27.1039940  22.9905560  63.6097040
  22.0591200  22.5514720  62.4619430  21.7191250  23.0289950  63.2186480
  21.2968520  22.0979840  62.1020530  26.2708970  23.6700310  56.4931980
  26.3921790  23.6286790  57.4417800  25.8857480  24.5324460  56.3378710
  30.2337340  21.4467710  64.5095670  30.2510080  21.8976360  65.3537520
  29.9852920  20.5473350  64.7229110  25.2830470  25.9801450  55.8915280
  24.7147370  25.5319700  55.2651190  25.9919470  26.3394230  55.3580430
  26.5096790  26.7290010  65.2490630  26.8766920  26.2548580  65.9951970
  26.3201850  27.6031580  65.5898970  19.3737280  21.4733700  61.3784100
  19.0884200  21.1089370  62.2162720  19.3116140  20.7414160  60.7647240
  24.2996160  25.7698650  67.5674840  23.9953230  26.6490630  67.7925200
  25.2542620  25.8298440  67.6032280  22.8277950  29.9759640  58.1641690
  22.0540210  29.4357260  58.0040410  23.5572580  29.4566250  57.8259450
  33.5865930  28.9725000  63.9568080  34.3065050  29.4680290  63.5664190
  33.3847750  28.2942890  63.3121950  29.0475870  20.3662960  58.0997470
  28.2340480  19.8676130  58.0242780  28.8537820  21.2061210  57.6833820
  31.7624260  24.7382610  56.3959630  32.6503880  25.0499840  56.2210970
  31.7329350  23.8654860  56.0040210  22.8715350  29.6440020  61.8020500
  23.3894020  28.8408280  61.7477390  22.4199370  29.5819160  62.6437330
  27.7584850  30.9106300  57.0747800  28.1000550  31.6548530  56.5791120
  26.9297560  31.2237420  57.4372630  34.0338530  26.0494450  55.8639490
  33.9502250  26.4808670  55.0135930  34.7532720  26.5092800  56.2966310
  35.1112670  28.5061970  68.9409460  34.3860860  29.0990750  68.7438850
  35.6388130  28.4985510  68.1422830  35.0625780  32.9036710  58.5921620
  34.4201940  32.2492330  58.8665340  34.6756440  33.3091800  57.8162290
  30.6412260  30.2322140  62.4393310  30.9936080  29.6350270  61.7794680
  29.7574590  29.9066370  62.6101560  26.7275540  30.9919830  59.8463720
  27.4146670  31.5389040  60.2271310  25.9407960  31.5360560  59.8813330
  18.8667940  26.6092650  55.3380800  19.7362790  26.8917450  55.6216720
  18.3758260  27.4228520  55.2229610  26.0302750  27.9965860  59.4589080
  26.4865530  28.8071110  59.6849270  25.6790960  27.6789000  60.2907570
  28.3335360  33.5072200  66.6881380  28.9777580  33.7131580  67.3654800
  28.6964800  32.7460600  66.2352230  21.9314530  18.3403510  59.9311600
  21.8029160  18.3321410  60.8796520  21.1076550  18.6786600  59.5802610
  29.6067440  31.5104550  65.4058830  30.2489670  30.8097710  65.5191000
  30.1316790  32.2902990  65.2255720  33.4523160  31.7953170  55.1297970
  33.2260740  31.0783610  55.7222610  33.0619360  31.5465610  54.2919720
  19.2339190  35.8220030  55.9042430  19.5936830  36.4209370  55.2499700
  19.0931530  36.3679920  56.6777460  33.0339410  29.7125110  56.7912130
  32.7461110  30.1737800  57.5790010  33.8291580  29.2522880  57.0596350
  25.2507810  33.2051230  56.7216100  25.2417910  33.9380920  56.1060610
  24.3306170  32.9582810  56.8143060  20.8514450  28.4266120  57.4662860
  20.2442400  29.1665020  57.4758160  21.3263800  28.5165480  56.6401060
  30.4247240  22.5916940  67.1419750  30.7928060  21.7712150  67.4699320
  29.5645440  22.6518830  67.5575400  33.7909270  21.5473880  57.9507310
  33.1622430  21.6519550  57.2365540  33.2961190  21.7670660  58.7401190
  28.2367410  33.2679470  55.3841290  28.3379390  33.0643460  54.4543270
  27.3369150  33.0137750  55.5889070  25.7593300  23.8259830  59.3665190
  25.0509450  24.2946170  59.8078800  26.0437780  23.1681840  60.0010380
  27.3849230  25.2456530  67.3657720  27.8834480  25.7202350  68.0309570
  27.5272180  24.3220050  67.5727750  29.7908730  20.5510490  60.8060980
  29.6676510  20.5696620  59.8570490  30.7393290  20.5989430  60.9259380
  26.8785520  35.7865790  60.0788960  27.1327020  35.7487180  59.1568330
  25.9298000  35.6599120  60.0717210  23.9628320  22.1344910  56.7415900
  24.8118850  22.5715060  56.6756090  23.5959590  22.4465170  57.5687960
  34.5916090  21.4624490  68.2086110  34.0889690  22.2029890  68.5479920
  35.4072750  21.8508490  67.8922900  32.8838100  26.7057670  61.6547470
  31.9428240  26.7207900  61.8295160  33.1982170  25.9193630  62.1007770
  22.8619740  28.3877270  55.2151430  23.6283010  28.2758630  55.7776860
  22.9394430  27.6915240  54.5628200  21.5566500  25.8202340  55.8984320
  21.6370090  24.8729850  56.0101720  22.4486250  26.1509220  56.0044980
  34.8863680  33.8766520  63.3301730  35.0111100  34.6997690  63.8025540
  35.7529240  33.6657250  62.9825880  22.3581210  35.9697730  63.0018860
  23.0943690  35.4213190  63.2727430  22.7422130  36.8353740  62.8624850
  19.2426690  32.0371300  58.8760370  18.3166470  32.2792440  58.8665780
  19.7083120  32.8645560  58.7545120  25.4683520  35.1428040  54.8244430
  26.2612130  35.4316870  54.3726220  24.9487870  34.7120210  54.1456910
  34.5213690  34.3698170  56.2481170  34.2355200  33.9563310  55.4335350
  34.3233240  35.2985880  56.1281690  25.9860920  30.3631450  54.6886780
  25.8811560  29.7483800  55.4148160  25.8185140  29.8397340  53.9049790
  29.2263650  29.4251480  55.2928770  28.6773750  29.8720780  55.9371510
  29.8482910  28.9200730  55.8166440  24.8938770  28.3842400  57.1894070
  25.3155190  28.2182270  58.0325460  25.0189610  27.5742630  56.6949210
  27.4066410  27.4080010  54.4371170  27.9272070  26.6929030  54.0712320
  28.0534810  28.0465880  54.7371680  26.3099930  19.8874560  67.1089730
  25.8617230  19.9098820  66.2635280  25.6765130  19.4893580  67.7060030
  26.7159480  28.7828890  67.7302170  27.1347590  29.6261620  67.5578410
  25.7968110  28.9200930  67.5008950  31.3911280  27.0682260  67.6902520
  30.8646500  27.5924880  67.0867660  31.7342620  27.7009650  68.3212250
  23.7897670  24.4575630  54.1352230  23.5886730  23.5942990  54.4965570
  23.6189720  24.3708990  53.1973830  24.5666900  35.0881900  68.8459900
  24.0287990  35.8127960  68.5268600  24.8200860  34.6112240  68.0557240
  31.2685980  19.2683860  56.6639110  31.5488270  18.4251760  57.0198530
  30.4951710  19.5006970  57.1777860  22.5880470  21.5576250  54.1230110
  22.8906370  21.5643680  53.2149260  23.3275060  21.2074110  54.6197770
  25.8065400  20.5010870  55.1086310  25.4587400  19.8234860  54.5288760
  26.0078170  20.0400380  55.9229700  27.9714440  35.4891620  56.7272910
  28.8665230  35.8276590  56.7491670  28.0032070  34.7671030  56.0997190
  21.6110600  30.8618670  54.9559910  22.0485470  31.4048340  55.6117490
  22.0958330  30.0365620  54.9656250  18.8256400  33.6507700  62.4080170
  19.1559410  32.7828760  62.1758810  19.2547400  33.8566220  63.2385130
  23.4218320  31.9816710  60.0682140  23.1213860  31.8581680  60.9686050
  23.3155810  31.1225300  59.6597870  19.3146610  34.5178290  65.1461800
  18.8777600  34.6979090  65.9785950  19.8824290  35.2752910  65.0043520
  36.1910240  31.7613110  54.7708820  35.3603200  31.8289760  55.2416050
  36.3682070  32.6517230  54.4675680  35.6466700  28.5060590  57.2743020
  36.4085610  29.0757240  57.3802710  35.6621070  27.9387790  58.0451330
  19.1471040  27.0298520  61.5050680  18.4919880  26.7610160  60.8610380
  19.9848990  26.9203000  61.0552660  36.6526670  29.3610690  62.1184950
  37.0235500  28.5778010  61.7120920  37.2928600  30.0499790  61.9402250
  33.6360430  30.7447270  67.5315270  32.8220270  31.1744430  67.7941060
  34.0434630  31.3565680  66.9184320  35.6985870  28.7994960  54.4315540
  35.9734710  29.7073840  54.3034760  35.5096610  28.7357490  55.3677530
  32.0961480  21.8239810  55.7269170  32.5146360  21.6370790  54.8865830
  31.7897540  20.9718860  56.0372100  35.5951210  26.7363950  59.4244970
  35.2194810  25.9691880  58.9926260  34.8654330  27.1186650  59.9119900
  20.1846970  27.4151090  66.0454020  20.5520010  27.3278490  66.9250040
  19.6157790  26.6517640  65.9460880  34.9850830  25.8835470  69.0584490
  34.7536920  25.6548220  68.1582440  35.2455380  26.8035020  69.0129380
  18.3609120  24.2397450  57.4476010  17.4573200  24.5027650  57.2727670
  18.8449740  24.5108620  56.6675970  34.8702170  24.9621440  62.7252210
  35.3939650  24.4684090  62.0942380  35.4561590  25.0971800  63.4699780
  35.0491890  25.0461310  66.2471760  34.0994600  25.0124850  66.3616750
  35.2304900  25.9561420  66.0121530  20.9036330  23.2962990  55.3570390
  21.6128030  22.8746210  54.8717670  20.1876270  23.3638220  54.7253740
  20.5510490  19.3502320  54.3973040  21.2738620  19.8911260  54.7154260
  20.8235010  19.0765740  53.5214580  34.3602140  24.2194790  58.6644620
  34.8561260  23.9865660  59.4493500  34.1618210  23.3806630  58.2482260
  20.2402680  18.6008510  64.2995660  20.8878870  18.0505890  63.8590820
  20.6604520  18.8551660  65.1211470  35.7889300  22.8555740  61.1982300
  35.6788580  22.7011780  62.1364570  36.5496890  22.3276680  60.9557710
  34.1355020  18.7949870  67.6565300  34.7727240  19.4084010  68.0224490
  34.2829910  18.8310530  66.7114530  36.6779570  20.6863660  54.4388440
  37.6028880  20.5544840  54.2306730  36.6555360  20.7656480  55.3924890
  36.7518060  21.4574320  57.0645150  35.9569560  21.3919440  57.5938060
  36.9561340  22.3924960  57.0530500  33.6936480  35.4965870  61.0583540
  34.2895550  35.1750440  60.3817960  33.9514630  35.0237690  61.8496810
  19.9934680  18.7564180  67.0420980  19.6449500  19.2128000  67.8079160
  19.6622380  17.8621310  67.1243410  25.3005080  33.4843370  66.8083890
  25.0596440  33.7517930  65.9214410  26.2407720  33.6549100  66.8634750
  36.5609240  35.5037750  67.6094530  36.0667520  35.9006620  66.8921660
  35.9522530  34.8786960  68.0031810  21.4387080  34.8746030  68.3271950
  20.8447400  34.7430730  69.0661990  21.4310920  34.0384170  67.8614050
  30.8842100  18.1678260  66.5301980  30.0101940  18.5013370  66.3274910
  30.7752850  17.6951440  67.3553850  31.7914080  20.3749130  67.9143700
  31.4627440  19.5600890  67.5345430  32.7396380  20.3318940  67.7909390
  34.2448690  36.1461170  64.8881270  33.7851660  36.8976980  64.5139290
  33.6161150  35.4267640  64.8296070  21.0699310  32.2404410  67.2779990
  20.3433370  31.6209700  67.2105940  21.1308460  32.6345020  66.4078070
  24.6744410  34.4549410  64.0629400  25.1909430  33.8436770  63.5377660
  25.3241790  34.9578190  64.5540410  27.4139910  35.3457900  64.8898380
  27.7017720  35.0912200  64.0131390  27.9263130  34.7935260  65.4803950
  28.6316920  19.0848100  65.4694890  27.8488710  19.5593600  65.7491650
  28.3379850  18.1802930  65.3608070  33.1837990  19.7871200  63.5143980
  33.6246080  19.7316300  62.6665580  32.9145580  20.7029210  63.5854160
  35.0476560  19.4186440  61.5252800  34.9864960  18.4747660  61.3783820
  35.8268590  19.5266530  62.0706260  19.3529310  35.5578800  60.4876750
  19.1851350  34.9249480  61.1858640  18.4863820  35.7638200  60.1370940
  19.9757330  19.3895580  57.9908610  20.7336690  19.5024460  57.4172640
  19.5134500  20.2264780  57.9452040  26.5171140  21.5034850  60.9810920
  25.7045650  21.1291740  60.6406800  27.0212780  20.7479930  61.2832110
  31.0196120  18.1677300  62.2193990  31.6225490  18.7397510  62.6942510
  30.2789110  18.7316740  61.9967890  34.1630720  18.5698860  57.4934270
  34.3581350  19.4682310  57.7601700  33.3760590  18.3385940  57.9867220
  20.9592010  34.2512030  57.9326890  20.4339630  34.6320060  57.2288850
  20.8836590  34.8762800  58.6536600  22.3482480  19.9159630  56.5310580
  22.8775240  19.1289430  56.4018530  22.9810800  20.5950820  56.7646110
  24.5420320  19.6534770  59.5855970  23.9123060  18.9522080  59.7526100
  24.0025460  20.4138900  59.3689130  35.7157330  35.8099570  59.2540830
  35.8909520  35.1237310  58.6101750  35.0178900  36.3346620  58.8617500
  23.5584980  36.1994410  56.8076140  24.2903800  35.9153690  56.2600030
  23.8178650  35.9607690  57.6975520  22.7199770  32.3159140  56.8122470
  22.0908650  32.7844240  57.3608300  22.8347600  31.4708360  57.2468660
  30.1749490  26.3664800  42.9623670  30.0943540  25.4519410  42.6915380
  29.7613910  26.8631870  42.2563380  28.3067530  28.1443820  44.8432940
  27.5309630  27.6644260  45.1331510  28.9580460  27.4649470  44.6689100
  22.3233360  28.4563630  45.7208700  21.4918240  28.2012340  46.1205210
  22.9314340  28.5274400  46.4566620  32.3274960  32.5504010  43.6232070
  31.8656490  31.7791250  43.9519240  33.1400510  32.5770080  44.1284520
  22.3034620  32.4903720  45.9166720  22.6062660  31.6001460  45.7376940
  23.0478210  33.0473940  45.6888970  20.7325310  23.4165520  39.5051090
  19.8442010  23.7581490  39.4030970  21.0166500  23.2165840  38.6131920
  18.6958320  26.0171170  45.3890790  19.2674430  25.2493370  45.3894430
  18.6959860  26.3159930  44.4797400  28.5538270  34.8362020  43.2436060
  27.9349710  35.2919520  42.6730500  29.4090050  34.9913480  42.8425760
  27.7476520  30.8201010  44.8503100  27.6784800  29.8790950  44.6892230
  28.5096380  30.9102420  45.4225670  19.9383190  21.4255530  47.1759720
  19.7586030  20.5281280  47.4562480  19.5363270  21.9727400  47.8506670
  28.7781690  23.6271390  45.0772030  29.1546510  22.7543270  44.9645700
  28.6801200  23.9630090  44.1862470  22.9086700  21.9997020  40.5389470
  23.0153450  22.9000750  40.8458230  21.9979060  21.9514990  40.2484120
  32.5605810  21.1221830  42.0100370  33.3815430  20.6318400  42.0525850
  32.5939890  21.7119490  42.7632210  20.5569860  23.9216030  45.7842060
  21.2379970  24.1854400  46.4029460  20.2417910  23.0816900  46.1180070
  24.7494430  24.9683390  44.8714650  25.2572650  25.4664360  45.5119670
  25.2807670  24.1918590  44.6954010  36.8505360  23.1388580  48.5744000
  36.1457530  23.5270290  48.0559110  37.1163280  23.8338870  49.1764930
  23.0330530  19.6081950  49.1378070  23.0348970  20.1254340  48.3323970
  22.2034840  19.1312130  49.1148000  29.4201620  29.7201260  40.6367970
  28.8018890  30.1850710  40.0730690  29.9324870  30.4128740  41.0537480
  24.2833380  29.2477130  47.3151570  23.9502760  29.8746050  47.9572640
  24.4600060  29.7739010  46.5353240  32.7967290  23.0622210  44.7827910
  32.0922860  23.3507100  45.3631020  33.1579450  23.8722320  44.4227470
  22.7145860  21.3191910  47.1448520  23.0562670  22.1633960  46.8502390
  21.7761670  21.4675650  47.2613860  23.4952480  31.2157930  49.1300750
  24.1126480  31.8909010  48.8485200  22.6345600  31.6245910  49.0388250
  18.7884820  30.4057790  38.0107600  18.4112800  30.8944890  37.2792500
  19.0457890  31.0783070  38.6414130  34.4130070  32.6797340  47.0455390
  33.7293590  33.3496450  47.0372060  34.9524360  32.8777990  46.2800250
  35.8654210  22.5077000  45.1737120  34.9179120  22.5415980  45.3052550
  36.1904200  23.3215950  45.5586480  26.3973750  18.8074180  43.4693110
  26.7048730  18.2521070  42.7528610  25.4674450  18.9418640  43.2866100
  31.9488810  34.5241470  45.7600570  31.9615970  34.1203760  44.8922830
  31.3964030  35.2988760  45.6562000  33.2434230  31.2457690  40.8490740
  33.1330560  30.3032020  40.9740160  33.2402480  31.6073330  41.7353500
  31.3474250  29.4271310  47.0883180  31.7643040  29.2131420  46.2536640
  32.0714070  29.6844100  47.6591800  28.7854510  26.8723010  40.2053230
  27.8583790  26.8060390  40.4341700  28.9379330  27.8103140  40.0908470
  28.7723590  23.1440010  37.2020390  27.8327260  23.3053970  37.2872850
  29.0906850  23.8625690  36.6556380  35.2936350  27.8258530  47.1799420
  34.4654980  27.8951620  46.7049550  35.8886830  28.4112840  46.7115250
  32.8151800  28.4343310  40.7088480  32.1964220  28.0962860  40.0614780
  32.7976250  27.7903070  41.4167670  32.2578360  24.6127850  48.1254290
  31.8449540  25.4381560  48.3794280  31.5254310  24.0272890  47.9330650
  24.3911150  27.3987750  42.9872960  23.9868150  26.6865000  42.4918860
  24.4774270  27.0540990  43.8761000  24.8592850  31.0855310  45.1512170
  24.5621140  30.4800780  44.4719950  25.8092670  31.1232620  45.0401530
  23.1039770  24.1730960  46.7672000  23.6554360  24.2826300  45.9925250
  23.6183280  24.5468560  47.4827230  32.9478460  34.6587180  48.8135270
  32.4709020  35.4659370  48.6207880  32.2640250  34.0065510  48.9661480
  23.9511280  30.8237000  51.8019970  23.0539810  31.0476970  52.0493370
  23.9764150  30.9471940  50.8531370  30.9916500  27.6730120  37.7161230
  31.4309780  26.8352550  37.5699050  31.7044920  28.3059520  37.8025370
  22.7782500  27.6950320  50.3777340  22.6390270  28.5673120  50.7464740
  21.8963860  27.3523130  50.2325280  29.1011880  32.6126190  41.6842470
  29.5407790  33.3550520  41.2697860  29.0398770  32.8552760  42.6081430
  24.5762850  33.6372020  52.5862490  24.5478280  34.0414970  51.7190920
  24.4127820  32.7082380  52.4234090  34.5733640  18.9272930  36.0302270
  34.2606300  19.0199760  36.9301340  35.3346110  19.5053960  35.9799700
  21.0915780  26.2932730  40.4879610  20.9713380  27.0194820  39.8760880
  20.7816670  25.5235640  40.0107520  36.5277670  34.4199120  53.8826660
  37.0037390  34.8982010  54.5615740  37.1484830  34.3516610  53.1572160
  18.7301150  29.4647870  46.2948250  18.8081570  29.5996640  45.3503970
  19.3442830  28.7563760  46.4876370  19.9748780  31.1648060  42.7054430
  19.5676860  31.3062650  41.8508030  20.8661790  30.8808220  42.5025640
  35.9310920  31.6111970  51.0426670  36.0573980  31.3723850  50.1243850
  35.9732300  30.7796510  51.5148750  29.7927660  35.3139970  49.6121480
  30.3072330  35.2247980  50.4143910  28.9496740  35.6599670  49.9049390
  24.2470440  35.3793840  40.8177100  24.0712920  34.4629380  40.6044900
  23.3926180  35.7381130  41.0574900  31.4708190  33.1082870  37.6003480
  30.7773350  33.1060160  36.9405760  32.2131050  32.6842190  37.1697650
  31.0358120  34.7345580  41.6751970  31.4915070  33.9534960  41.9890590
  31.3750640  35.4452400  42.2193150  35.7834930  23.6644430  52.0076410
  35.1679200  24.1724100  51.4791870  35.4631350  22.7642760  51.9502350
  18.7860670  30.5062040  48.8342710  18.9491710  30.0367400  48.0162080
  19.2513120  29.9985600  49.4991550  23.5579440  19.6367800  43.8703280
  23.1147590  20.4177340  43.5387800  24.1164430  19.9597690  44.5774220
  27.8449250  22.5036320  49.4738600  27.3828620  22.7119340  50.2858540
  27.4427360  21.6895670  49.1709270  32.8453760  23.7245270  50.6035260
  31.9947350  23.4251020  50.9244330  32.6855550  23.9687280  49.6919080
  29.9403470  25.2247020  52.7034050  30.2656880  24.3910770  52.3636280
  30.7283800  25.7475540  52.8512380  26.6738260  19.2578500  38.7509110
  26.0492440  19.2538370  39.4762420  26.5868380  18.3909460  38.3545080
  25.5955340  20.1815130  45.7292880  25.8927670  21.0877960  45.6484900
  26.1440900  19.6933910  45.1152450  23.3493660  24.7601370  41.5984530
  23.1234580  24.5438540  42.5031150  22.5686190  25.1929830  41.2530500
  30.5791420  24.7664740  40.1975180  29.9800310  25.4900540  40.0138800
  31.1271030  24.7041520  39.4151630  25.7892870  25.6586950  52.2644800
  25.6936470  24.7181680  52.1145200  26.6324850  25.8802020  51.8692870
  29.1856290  23.4028280  42.2278460  29.5785860  23.7200480  41.4147150
  29.5473140  22.5240160  42.3422980  20.9203410  22.0700620  50.4178580
  20.5266800  22.9175830  50.6251360  20.2321810  21.4326990  50.6087220
  27.4948460  22.1535590  53.4875320  26.8046780  21.9607790  54.1221410
  28.2380760  22.4370230  54.0199620  18.2220460  19.9929080  44.4508660
  17.9333510  20.5631940  45.1633640  18.9666220  19.5133530  44.8139890
  18.4090690  23.9349200  35.6611380  18.3265360  24.8779960  35.8026370
  18.0573750  23.7924110  34.7823730  29.7711430  25.9934030  46.3229240
  29.0392550  26.5020840  46.6719340  29.3735770  25.1764010  46.0218020
  26.2088820  22.6688230  44.7281730  26.2124880  22.2278180  43.8786270
  27.1039940  22.9905560  44.8353550  22.0591200  22.5514720  43.6875940
  21.7191250  23.0289950  44.4442990  21.2968520  22.0979840  43.3277040
  26.2708970  23.6700310  37.7188490  26.3921790  23.6286790  38.6674310
  25.8857480  24.5324460  37.5635220  30.2337340  21.4467710  45.7352180
  30.2510080  21.8976360  46.5794030  29.9852920  20.5473350  45.9485620
  25.2830470  25.9801450  37.1171790  24.7147370  25.5319700  36.4907700
  25.9919470  26.3394230  36.5836940  33.6608090  18.8599890  51.5738560
  33.9853860  18.1289550  52.0996540  33.6964600  18.5413530  50.6719550
  20.3599650  29.8813470  50.9938520  19.9754440  29.2407140  51.5921480
  20.6711840  30.5849590  51.5633250  26.5096790  26.7290010  46.4747140
  26.8766920  26.2548580  47.2208480  26.3201850  27.6031580  46.8155480
  19.3737280  21.4733700  42.6040610  19.0884200  21.1089370  43.4419230
  19.3116140  20.7414160  41.9903750  24.2996160  25.7698650  48.7931350
  23.9953230  26.6490630  49.0181710  25.2542620  25.8298440  48.8288790
  22.8277950  29.9759640  39.3898200  22.0540210  29.4357260  39.2296920
  23.5572580  29.4566250  39.0515960  33.5865930  28.9725000  45.1824590
  34.3065050  29.4680290  44.7920700  33.3847750  28.2942890  44.5378460
  29.0475870  20.3662960  39.3253980  28.2340480  19.8676130  39.2499290
  28.8537820  21.2061210  38.9090330  28.9684730  29.0434060  51.0693590
  28.9022040  28.1229730  50.8151180  28.3389870  29.1409500  51.7838230
  31.7624260  24.7382610  37.6216140  32.6503880  25.0499840  37.4467480
  31.7329350  23.8654860  37.2296720  22.8715350  29.6440020  43.0277010
  23.3894020  28.8408280  42.9733900  22.4199370  29.5819160  43.8693840
  27.7584850  30.9106300  38.3004310  28.1000550  31.6548530  37.8047630
  26.9297560  31.2237420  38.6629140  20.3559890  26.6101390  49.9402710
  19.9974830  27.2755240  50.5276050  20.0614450  25.7784940  50.3115330
  23.5573010  27.0685630  52.8242260  23.2573150  27.2142810  51.9270080
  24.3284250  26.5090920  52.7315650  28.9001460  31.8654630  50.8197390
  28.9146000  30.9335590  50.6016300  28.1926560  31.9514390  51.4587160
  34.0338530  26.0494450  37.0896000  33.9502250  26.4808670  36.2392440
  34.7532720  26.5092800  37.5222820  35.1112670  28.5061970  50.1665970
  34.3860860  29.0990750  49.9695360  35.6388130  28.4985510  49.3679340
  35.0625780  32.9036710  39.8178130  34.4201940  32.2492330  40.0921850
  34.6756440  33.3091800  39.0418800  30.6412260  30.2322140  43.6649820
  30.9936080  29.6350270  43.0051190  29.7574590  29.9066370  43.8358070
  26.7275540  30.9919830  41.0720230  27.4146670  31.5389040  41.4527820
  25.9407960  31.5360560  41.1069840  18.8667940  26.6092650  36.5637310
  19.7362790  26.8917450  36.8473230  18.3758260  27.4228520  36.4486120
  26.0302750  27.9965860  40.6845590  26.4865530  28.8071110  40.9105780
  25.6790960  27.6789000  41.5164080  28.3335360  33.5072200  47.9137890
  28.9777580  33.7131580  48.5911310  28.6964800  32.7460600  47.4608740
  21.9314530  18.3403510  41.1568110  21.8029160  18.3321410  42.1053030
  21.1076550  18.6786600  40.8059120  29.6067440  31.5104550  46.6315340
  30.2489670  30.8097710  46.7447510  30.1316790  32.2902990  46.4512230
  31.3805060  32.3099450  49.8351400  31.7161300  32.8966140  50.5129320
  30.4605400  32.1792160  50.0649190  19.2339190  35.8220030  37.1298940
  19.5936830  36.4209370  36.4756210  19.0931530  36.3679920  37.9033970
  18.9308460  20.0994630  50.6174810  18.2166980  20.2991550  51.2227420
  19.3503500  19.3234200  50.9889610  33.0339410  29.7125110  38.0168640
  32.7461110  30.1737800  38.8046520  33.8291580  29.2522880  38.2852860
  19.2181050  34.0874890  51.6041340  19.3272170  33.1469630  51.4636730
  18.5661610  34.3529640  50.9555070  27.2093640  32.3590780  53.0039460
  26.8890510  31.6400020  53.5485150  26.5352000  33.0345850  53.0775520
  25.2507810  33.2051230  37.9472610  25.2417910  33.9380920  37.3317120
  24.3306170  32.9582810  38.0399570  20.8514450  28.4266120  38.6919370
  20.2442400  29.1665020  38.7014670  21.3263800  28.5165480  37.8657570
  30.4247240  22.5916940  48.3676260  30.7928060  21.7712150  48.6955830
  29.5645440  22.6518830  48.7831910  33.7909270  21.5473880  39.1763820
  33.1622430  21.6519550  38.4622050  33.2961190  21.7670660  39.9657700
  28.2367410  33.2679470  36.6097800  28.3379390  33.0643460  35.6799780
  27.3369150  33.0137750  36.8145580  25.7593300  23.8259830  40.5921700
  25.0509450  24.2946170  41.0335310  26.0437780  23.1681840  41.2266890
  27.3849230  25.2456530  48.5914230  27.8834480  25.7202350  49.2566080
  27.5272180  24.3220050  48.7984260  29.7908730  20.5510490  42.0317490
  29.6676510  20.5696620  41.0827000  30.7393290  20.5989430  42.1515890
  26.8785520  35.7865790  41.3045470  27.1327020  35.7487180  40.3824840
  25.9298000  35.6599120  41.2973720  23.9628320  22.1344910  37.9672410
  24.8118850  22.5715060  37.9012600  23.5959590  22.4465170  38.7944470
  34.5916090  21.4624490  49.4342620  34.0889690  22.2029890  49.7736430
  35.4072750  21.8508490  49.1179410  32.8838100  26.7057670  42.8803980
  31.9428240  26.7207900  43.0551670  33.1982170  25.9193630  43.3264280
  22.8619740  28.3877270  36.4407940  23.6283010  28.2758630  37.0033370
  22.9394430  27.6915240  35.7884710  21.5566500  25.8202340  37.1240830
  21.6370090  24.8729850  37.2358230  22.4486250  26.1509220  37.2301490
  34.8863680  33.8766520  44.5558240  35.0111100  34.6997690  45.0282050
  35.7529240  33.6657250  44.2082390  22.3581210  35.9697730  44.2275370
  23.0943690  35.4213190  44.4983940  22.7422130  36.8353740  44.0881360
  19.2426690  32.0371300  40.1016880  18.3166470  32.2792440  40.0922290
  19.7083120  32.8645560  39.9801630  21.3639490  35.1543800  53.4160950
  22.1652220  35.4755850  53.8296350  20.8491310  34.7939380  54.1380860
  25.4683520  35.1428040  36.0500940  26.2612130  35.4316870  35.5982730
  24.9487870  34.7120210  35.3713420  30.2004120  31.2623670  53.3636360
  29.5942280  31.2855270  52.6232110  29.8958230  30.5306710  53.9003610
  31.6304490  34.9903960  51.9745770  32.5826240  34.9061980  51.9246010
  31.4832710  35.6545670  52.6479560  19.0837300  27.6417260  52.3597000
  19.5876320  27.0624540  52.9313230  18.3444720  27.9257490  52.8973370
  25.9860920  30.3631450  35.9143290  25.8811560  29.7483800  36.6404670
  25.8185140  29.8397340  35.1306300  26.1375240  29.0488250  51.8932520
  25.3720910  29.6173250  51.8087190  26.3191200  28.7564460  51.0000750
  29.2263650  29.4251480  36.5185280  28.6773750  29.8720780  37.1628020
  29.8482910  28.9200730  37.0422950  33.2798590  30.7793580  52.4507540
  34.0208060  31.1169340  51.9475000  32.5171270  30.9485640  51.8977310
  21.1160380  25.7846850  53.2547070  21.1565720  25.4860720  54.1632300
  21.9705880  26.1854460  53.0954590  24.8938770  28.3842400  38.4150580
  25.3155190  28.2182270  39.2581970  25.0189610  27.5742630  37.9205720
  23.0566190  24.3638950  51.2221560  22.5262650  23.8729900  50.5944900
  23.7254260  24.7923150  50.6879490  27.4066410  27.4080010  35.6627680
  27.9272070  26.6929030  35.2968830  28.0534810  28.0465880  35.9628190
  31.9544250  28.8308410  50.9862750  32.3685270  28.9853490  51.8353170
  31.0195250  28.9563630  51.1488530  32.4266420  26.1704570  52.9901900
  33.0087190  25.4156890  52.9022380  32.6028190  26.7012010  52.2133380
  23.5438490  21.3301320  51.3018850  23.4495360  20.7122070  50.5769720
  22.9635880  22.0567610  51.0748760  26.3099930  19.8874560  48.3346240
  25.8617230  19.9098820  47.4891790  25.6765130  19.4893580  48.9316540
  26.7159480  28.7828890  48.9558680  27.1347590  29.6261620  48.7834920
  25.7968110  28.9200930  48.7265460  29.0523380  26.5145070  50.3396520
  29.1719590  25.9186210  51.0791360  29.9117380  26.5514760  49.9197820
  31.3911280  27.0682260  48.9159030  30.8646500  27.5924880  48.3124170
  31.7342620  27.7009650  49.5468760  23.7897670  24.4575630  35.3608740
  23.5886730  23.5942990  35.7222080  23.6189720  24.3708990  34.4230340
  24.5666900  35.0881900  50.0716410  24.0287990  35.8127960  49.7525110
  24.8200860  34.6112240  49.2813750  25.8192150  23.0566420  51.5972340
  26.4091840  22.7482270  52.2850160  25.0012390  22.5846170  51.7532240
  30.6385580  22.6732230  51.8305360  29.9501100  22.0113770  51.7655350
  31.3591600  22.2270500  52.2753820  31.2685980  19.2683860  37.8895620
  31.5488270  18.4251760  38.2455040  30.4951710  19.5006970  38.4034370
  22.5880470  21.5576250  35.3486620  22.8906370  21.5643680  34.4405770
  23.3275060  21.2074110  35.8454280  27.4229110  36.3233110  50.3303060
  27.3487810  37.2268250  50.6375430  26.5207950  36.0045010  50.3025130
  25.8065400  20.5010870  36.3342820  25.4587400  19.8234860  35.7545270
  26.0078170  20.0400380  37.1486210  27.9714440  35.4891620  37.9529420
  28.8665230  35.8276590  37.9748180  28.0032070  34.7671030  37.3253700
  21.6110600  30.8618670  36.1816420  22.0485470  31.4048340  36.8374000
  22.0958330  30.0365620  36.1912760  18.8256400  33.6507700  43.6336680
  19.1559410  32.7828760  43.4015320  19.2547400  33.8566220  44.4641640
  23.4218320  31.9816710  41.2938650  23.1213860  31.8581680  42.1942560
  23.3155810  31.1225300  40.8854380  19.3146610  34.5178290  46.3718310
  18.8777600  34.6979090  47.2042460  19.8824290  35.2752910  46.2300030
  34.9508790  34.0195290  50.6595620  34.3510780  34.0787850  49.9159540
  35.0802690  33.0800270  50.7892470  35.6466700  28.5060590  38.4999530
  36.4085610  29.0757240  38.6059220  35.6621070  27.9387790  39.2707840
  19.1471040  27.0298520  42.7307190  18.4919880  26.7610160  42.0866890
  19.9848990  26.9203000  42.2809170  36.6526670  29.3610690  43.3441460
  37.0235500  28.5778010  42.9377430  37.2928600  30.0499790  43.1658760
  33.6360430  30.7447270  48.7571780  32.8220270  31.1744430  49.0197570
  34.0434630  31.3565680  48.1440830  35.6985870  28.7994960  35.6572050
  35.9734710  29.7073840  35.5291270  35.5096610  28.7357490  36.5934040
  32.0961480  21.8239810  36.9525680  32.5146360  21.6370790  36.1122340
  31.7897540  20.9718860  37.2628610  35.5951210  26.7363950  40.6501480
  35.2194810  25.9691880  40.2182770  34.8654330  27.1186650  41.1376410
  20.1846970  27.4151090  47.2710530  20.5520010  27.3278490  48.1506550
  19.6157790  26.6517640  47.1717390  34.9850830  25.8835470  50.2841000
  34.7536920  25.6548220  49.3838950  35.2455380  26.8035020  50.2385890
  19.7362970  24.3260180  51.1768950  18.8419020  24.2926940  51.5162660
  20.2760520  24.5246970  51.9420200  33.4238900  21.1091900  53.0620700
  34.3009080  21.1175300  53.4454700  33.4359740  20.3722740  52.4513050
  18.3609120  24.2397450  38.6732520  17.4573200  24.5027650  38.4984180
  18.8449740  24.5108620  37.8932480  34.8702170  24.9621440  43.9508720
  35.3939650  24.4684090  43.3198890  35.4561590  25.0971800  44.6956290
  35.0491890  25.0461310  47.4728270  34.0994600  25.0124850  47.5873260
  35.2304900  25.9561420  47.2378040  20.9036330  23.2962990  36.5826900
  21.6128030  22.8746210  36.0974180  20.1876270  23.3638220  35.9510250
  20.5510490  19.3502320  35.6229550  21.2738620  19.8911260  35.9410770
  20.8235010  19.0765740  34.7471090  34.3602140  24.2194790  39.8901130
  34.8561260  23.9865660  40.6750010  34.1618210  23.3806630  39.4738770
  20.2402680  18.6008510  45.5252170  20.8878870  18.0505890  45.0847330
  20.6604520  18.8551660  46.3467980  35.7889300  22.8555740  42.4238810
  35.6788580  22.7011780  43.3621080  36.5496890  22.3276680  42.1814220
  34.1355020  18.7949870  48.8821810  34.7727240  19.4084010  49.2481000
  34.2829910  18.8310530  47.9371040  36.6779570  20.6863660  35.6644950
  37.6028880  20.5544840  35.4563240  36.6555360  20.7656480  36.6181400
  36.7518060  21.4574320  38.2901660  35.9569560  21.3919440  38.8194570
  36.9561340  22.3924960  38.2787010  33.6936480  35.4965870  42.2840050
  34.2895550  35.1750440  41.6074470  33.9514630  35.0237690  43.0753320
  19.9934680  18.7564180  48.2677490  19.6449500  19.2128000  49.0335670
  19.6622380  17.8621310  48.3499920  21.5999050  31.9283780  52.4330680
  21.5568680  31.5576690  53.3145140  21.7310060  32.8661350  52.5732500
  25.3005080  33.4843370  48.0340400  25.0596440  33.7517930  47.1470920
  26.2407720  33.6549100  48.0891260  27.5059500  19.9476060  51.7896910
  27.4448390  20.5397890  52.5392320  28.4459880  19.8402020  51.6447170
  30.1434060  19.6046120  51.4289200  30.7574470  19.9225410  50.7670280
  30.6883620  19.1194710  52.0485060  36.5609240  35.5037750  48.8351040
  36.0667520  35.9006620  48.1178170  35.9522530  34.8786960  49.2288320
  20.6655320  18.2840380  51.5428260  21.2138310  18.1028430  50.7794370
  20.7310630  17.4934490  52.0784570  21.4387080  34.8746030  49.5528460
  20.8447400  34.7430730  50.2918500  21.4310920  34.0384170  49.0870560
  30.8842100  18.1678260  47.7558490  30.0101940  18.5013370  47.5531420
  30.7752850  17.6951440  48.5810360  31.7914080  20.3749130  49.1400210
  31.4627440  19.5600890  48.7601940  32.7396380  20.3318940  49.0165900
  34.2448690  36.1461170  46.1137780  33.7851660  36.8976980  45.7395800
  33.6161150  35.4267640  46.0552580  21.0699310  32.2404410  48.5036500
  20.3433370  31.6209700  48.4362450  21.1308460  32.6345020  47.6334580
  24.6744410  34.4549410  45.2885910  25.1909430  33.8436770  44.7634170
  25.3241790  34.9578190  45.7796920  27.4139910  35.3457900  46.1154890
  27.7017720  35.0912200  45.2387900  27.9263130  34.7935260  46.7060460
  28.6316920  19.0848100  46.6951400  27.8488710  19.5593600  46.9748160
  28.3379850  18.1802930  46.5864580  33.1837990  19.7871200  44.7400490
  33.6246080  19.7316300  43.8922090  32.9145580  20.7029210  44.8110670
  35.0476560  19.4186440  42.7509310  34.9864960  18.4747660  42.6040330
  35.8268590  19.5266530  43.2962770  19.3529310  35.5578800  41.7133260
  19.1851350  34.9249480  42.4115150  18.4863820  35.7638200  41.3627450
  19.9757330  19.3895580  39.2165120  20.7336690  19.5024460  38.6429150
  19.5134500  20.2264780  39.1708550  26.5171140  21.5034850  42.2067430
  25.7045650  21.1291740  41.8663310  27.0212780  20.7479930  42.5088620
  31.0196120  18.1677300  43.4450500  31.6225490  18.7397510  43.9199020
  30.2789110  18.7316740  43.2224400  34.1630720  18.5698860  38.7190780
  34.3581350  19.4682310  38.9858210  33.3760590  18.3385940  39.2123730
  20.9592010  34.2512030  39.1583400  20.4339630  34.6320060  38.4545360
  20.8836590  34.8762800  39.8793110  22.3482480  19.9159630  37.7567090
  22.8775240  19.1289430  37.6275040  22.9810800  20.5950820  37.9902620
  24.5420320  19.6534770  40.8112480  23.9123060  18.9522080  40.9782610
  24.0025460  20.4138900  40.5945640  27.4812270  36.2674000  53.4823090
  28.4079580  36.0318270  53.5259050  27.4662700  37.0946000  53.0009120
  24.6675880  18.9318750  53.2464970  24.3860150  19.4352350  52.4825790
  25.0495580  18.1340500  52.8807100  23.5584980  36.1994410  38.0332650
  24.2903800  35.9153690  37.4856540  23.8178650  35.9607690  38.9232030
  22.7199770  32.3159140  38.0378980  22.0908650  32.7844240  38.5864810
  22.8347600  31.4708360  38.4725170  31.2691340  18.3472330  53.8245440
  31.1556790  18.6666940  54.7196960  32.0861080  18.7484840  53.5282720
  34.0489830  35.4943860  53.3064130  34.8415150  34.9993090  53.0990090
  34.3422980  36.1734000  53.9139740  30.1749490  26.3664800  24.1880180
  30.0943540  25.4519410  23.9171890  29.7613910  26.8631870  23.4819890
  28.3067530  28.1443820  26.0689450  27.5309630  27.6644260  26.3588020
  28.9580460  27.4649470  25.8945610  22.3233360  28.4563630  26.9465210
  21.4918240  28.2012340  27.3461720  22.9314340  28.5274400  27.6823130
  32.3274960  32.5504010  24.8488580  31.8656490  31.7791250  25.1775750
  33.1400510  32.5770080  25.3541030  22.3034620  32.4903720  27.1423230
  22.6062660  31.6001460  26.9633450  23.0478210  33.0473940  26.9145480
  20.7325310  23.4165520  20.7307600  19.8442010  23.7581490  20.6287480
  21.0166500  23.2165840  19.8388430  18.6958320  26.0171170  26.6147300
  19.2674430  25.2493370  26.6150940  18.6959860  26.3159930  25.7053910
  28.5538270  34.8362020  24.4692570  27.9349710  35.2919520  23.8987010
  29.4090050  34.9913480  24.0682270  27.7476520  30.8201010  26.0759610
  27.6784800  29.8790950  25.9148740  28.5096380  30.9102420  26.6482180
  19.9383190  21.4255530  28.4016230  19.7586030  20.5281280  28.6818990
  19.5363270  21.9727400  29.0763180  28.7781690  23.6271390  26.3028540
  29.1546510  22.7543270  26.1902210  28.6801200  23.9630090  25.4118980
  22.9086700  21.9997020  21.7645980  23.0153450  22.9000750  22.0714740
  21.9979060  21.9514990  21.4740630  32.5605810  21.1221830  23.2356880
  33.3815430  20.6318400  23.2782360  32.5939890  21.7119490  23.9888720
  20.5569860  23.9216030  27.0098570  21.2379970  24.1854400  27.6285970
  20.2417910  23.0816900  27.3436580  24.7494430  24.9683390  26.0971160
  25.2572650  25.4664360  26.7376180  25.2807670  24.1918590  25.9210520
  36.8505360  23.1388580  29.8000510  36.1457530  23.5270290  29.2815620
  37.1163280  23.8338870  30.4021440  23.0330530  19.6081950  30.3634580
  23.0348970  20.1254340  29.5580480  22.2034840  19.1312130  30.3404510
  29.4201620  29.7201260  21.8624480  28.8018890  30.1850710  21.2987200
  29.9324870  30.4128740  22.2793990  24.2833380  29.2477130  28.5408080
  23.9502760  29.8746050  29.1829150  24.4600060  29.7739010  27.7609750
  32.7967290  23.0622210  26.0084420  32.0922860  23.3507100  26.5887530
  33.1579450  23.8722320  25.6483980  22.7145860  21.3191910  28.3705030
  23.0562670  22.1633960  28.0758900  21.7761670  21.4675650  28.4870370
  23.4952480  31.2157930  30.3557260  24.1126480  31.8909010  30.0741710
  22.6345600  31.6245910  30.2644760  18.7884820  30.4057790  19.2364110
  18.4112800  30.8944890  18.5049010  19.0457890  31.0783070  19.8670640
  34.4130070  32.6797340  28.2711900  33.7293590  33.3496450  28.2628570
  34.9524360  32.8777990  27.5056760  35.8654210  22.5077000  26.3993630
  34.9179120  22.5415980  26.5309060  36.1904200  23.3215950  26.7842990
  26.3973750  18.8074180  24.6949620  26.7048730  18.2521070  23.9785120
  25.4674450  18.9418640  24.5122610  31.9488810  34.5241470  26.9857080
  31.9615970  34.1203760  26.1179340  31.3964030  35.2988760  26.8818510
  33.2434230  31.2457690  22.0747250  33.1330560  30.3032020  22.1996670
  33.2402480  31.6073330  22.9610010  31.3474250  29.4271310  28.3139690
  31.7643040  29.2131420  27.4793150  32.0714070  29.6844100  28.8848310
  28.7854510  26.8723010  21.4309740  27.8583790  26.8060390  21.6598210
  28.9379330  27.8103140  21.3164980  28.7723590  23.1440010  18.4276900
  27.8327260  23.3053970  18.5129360  29.0906850  23.8625690  17.8812890
  35.2936350  27.8258530  28.4055930  34.4654980  27.8951620  27.9306060
  35.8886830  28.4112840  27.9371760  32.8151800  28.4343310  21.9344990
  32.1964220  28.0962860  21.2871290  32.7976250  27.7903070  22.6424180
  32.2578360  24.6127850  29.3510800  31.8449540  25.4381560  29.6050790
  31.5254310  24.0272890  29.1587160  24.3911150  27.3987750  24.2129470
  23.9868150  26.6865000  23.7175370  24.4774270  27.0540990  25.1017510
  24.8592850  31.0855310  26.3768680  24.5621140  30.4800780  25.6976460
  25.8092670  31.1232620  26.2658040  23.1039770  24.1730960  27.9928510
  23.6554360  24.2826300  27.2181760  23.6183280  24.5468560  28.7083740
  32.9478460  34.6587180  30.0391780  32.4709020  35.4659370  29.8464390
  32.2640250  34.0065510  30.1917990  23.9511280  30.8237000  33.0276480
  23.0539810  31.0476970  33.2749880  23.9764150  30.9471940  32.0787880
  30.9916500  27.6730120  18.9417740  31.4309780  26.8352550  18.7955560
  31.7044920  28.3059520  19.0281880  22.7782500  27.6950320  31.6033850
  22.6390270  28.5673120  31.9721250  21.8963860  27.3523130  31.4581790
  29.1011880  32.6126190  22.9098980  29.5407790  33.3550520  22.4954370
  29.0398770  32.8552760  23.8337940  24.5762850  33.6372020  33.8119000
  24.5478280  34.0414970  32.9447430  24.4127820  32.7082380  33.6490600
  34.5733640  18.9272930  17.2558780  34.2606300  19.0199760  18.1557850
  35.3346110  19.5053960  17.2056210  21.0915780  26.2932730  21.7136120
  20.9713380  27.0194820  21.1017390  20.7816670  25.5235640  21.2364030
  18.7301150  29.4647870  27.5204760  18.8081570  29.5996640  26.5760480
  19.3442830  28.7563760  27.7132880  19.9748780  31.1648060  23.9310940
  19.5676860  31.3062650  23.0764540  20.8661790  30.8808220  23.7282150
  29.7927660  35.3139970  30.8377990  30.3072330  35.2247980  31.6400420
  28.9496740  35.6599670  31.1305900  31.7682060  35.5995310  20.2661990
  31.6083200  35.3098250  21.1643820  31.6028770  34.8235440  19.7307220
  24.2470440  35.3793840  22.0433610  24.0712920  34.4629380  21.8301410
  23.3926180  35.7381130  22.2831410  31.4708190  33.1082870  18.8259990
  30.7773350  33.1060160  18.1662270  32.2131050  32.6842190  18.3954160
  31.0358120  34.7345580  22.9008480  31.4915070  33.9534960  23.2147100
  31.3750640  35.4452400  23.4449660  35.7834930  23.6644430  33.2332920
  35.1679200  24.1724100  32.7048380  35.4631350  22.7642760  33.1758860
  18.7860670  30.5062040  30.0599220  18.9491710  30.0367400  29.2418590
  19.2513120  29.9985600  30.7248060  23.5579440  19.6367800  25.0959790
  23.1147590  20.4177340  24.7644310  24.1164430  19.9597690  25.8030730
  27.8449250  22.5036320  30.6995110  27.3828620  22.7119340  31.5115050
  27.4427360  21.6895670  30.3965780  32.8453760  23.7245270  31.8291770
  31.9947350  23.4251020  32.1500840  32.6855550  23.9687280  30.9175590
  29.9403470  25.2247020  33.9290560  30.2656880  24.3910770  33.5892790
  30.7283800  25.7475540  34.0768890  26.6738260  19.2578500  19.9765620
  26.0492440  19.2538370  20.7018930  26.5868380  18.3909460  19.5801590
  25.5955340  20.1815130  26.9549390  25.8927670  21.0877960  26.8741410
  26.1440900  19.6933910  26.3408960  23.3493660  24.7601370  22.8241040
  23.1234580  24.5438540  23.7287660  22.5686190  25.1929830  22.4787010
  30.5791420  24.7664740  21.4231690  29.9800310  25.4900540  21.2395310
  31.1271030  24.7041520  20.6408140  25.7892870  25.6586950  33.4901310
  25.6936470  24.7181680  33.3401710  26.6324850  25.8802020  33.0949380
  29.1856290  23.4028280  23.4534970  29.5785860  23.7200480  22.6403660
  29.5473140  22.5240160  23.5679490  20.9203410  22.0700620  31.6435090
  20.5266800  22.9175830  31.8507870  20.2321810  21.4326990  31.8343730
  27.4948460  22.1535590  34.7131830  26.8046780  21.9607790  35.3477920
  28.2380760  22.4370230  35.2456130  18.2220460  19.9929080  25.6765170
  17.9333510  20.5631940  26.3890150  18.9666220  19.5133530  26.0396400
  18.4090690  23.9349200  16.8867890  18.3265360  24.8779960  17.0282880
  18.0573750  23.7924110  16.0080240  29.7711430  25.9934030  27.5485750
  29.0392550  26.5020840  27.8975850  29.3735770  25.1764010  27.2474530
  26.2088820  22.6688230  25.9538240  26.2124880  22.2278180  25.1042780
  27.1039940  22.9905560  26.0610060  22.0591200  22.5514720  24.9132450
  21.7191250  23.0289950  25.6699500  21.2968520  22.0979840  24.5533550
  26.2708970  23.6700310  18.9445000  26.3921790  23.6286790  19.8930820
  25.8857480  24.5324460  18.7891730  30.2337340  21.4467710  26.9608690
  30.2510080  21.8976360  27.8050540  29.9852920  20.5473350  27.1742130
  25.2830470  25.9801450  18.3428300  24.7147370  25.5319700  17.7164210
  25.9919470  26.3394230  17.8093450  33.6608090  18.8599890  32.7995070
  33.9853860  18.1289550  33.3253050  33.6964600  18.5413530  31.8976060
  20.3599650  29.8813470  32.2195030  19.9754440  29.2407140  32.8177990
  20.6711840  30.5849590  32.7889760  26.5096790  26.7290010  27.7003650
  26.8766920  26.2548580  28.4464990  26.3201850  27.6031580  28.0411990
  19.3737280  21.4733700  23.8297120  19.0884200  21.1089370  24.6675740
  19.3116140  20.7414160  23.2160260  24.2996160  25.7698650  30.0187860
  23.9953230  26.6490630  30.2438220  25.2542620  25.8298440  30.0545300
  22.8277950  29.9759640  20.6154710  22.0540210  29.4357260  20.4553430
  23.5572580  29.4566250  20.2772470  33.5865930  28.9725000  26.4081100
  34.3065050  29.4680290  26.0177210  33.3847750  28.2942890  25.7634970
  29.0475870  20.3662960  20.5510490  28.2340480  19.8676130  20.4755800
  28.8537820  21.2061210  20.1346840  28.9684730  29.0434060  32.2950100
  28.9022040  28.1229730  32.0407690  28.3389870  29.1409500  33.0094740
  31.7624260  24.7382610  18.8472650  32.6503880  25.0499840  18.6723990
  31.7329350  23.8654860  18.4553230  22.8715350  29.6440020  24.2533520
  23.3894020  28.8408280  24.1990410  22.4199370  29.5819160  25.0950350
  27.7584850  30.9106300  19.5260820  28.1000550  31.6548530  19.0304140
  26.9297560  31.2237420  19.8885650  20.3559890  26.6101390  31.1659220
  19.9974830  27.2755240  31.7532560  20.0614450  25.7784940  31.5371840
  23.5573010  27.0685630  34.0498770  23.2573150  27.2142810  33.1526590
  24.3284250  26.5090920  33.9572160  28.9001460  31.8654630  32.0453900
  28.9146000  30.9335590  31.8272810  28.1926560  31.9514390  32.6843670
  34.0338530  26.0494450  18.3152510  33.9502250  26.4808670  17.4648950
  34.7532720  26.5092800  18.7479330  35.1112670  28.5061970  31.3922480
  34.3860860  29.0990750  31.1951870  35.6388130  28.4985510  30.5935850
  35.0625780  32.9036710  21.0434640  34.4201940  32.2492330  21.3178360
  34.6756440  33.3091800  20.2675310  30.6412260  30.2322140  24.8906330
  30.9936080  29.6350270  24.2307700  29.7574590  29.9066370  25.0614580
  26.7275540  30.9919830  22.2976740  27.4146670  31.5389040  22.6784330
  25.9407960  31.5360560  22.3326350  18.8667940  26.6092650  17.7893820
  19.7362790  26.8917450  18.0729740  18.3758260  27.4228520  17.6742630
  26.0302750  27.9965860  21.9102100  26.4865530  28.8071110  22.1362290
  25.6790960  27.6789000  22.7420590  28.3335360  33.5072200  29.1394400
  28.9777580  33.7131580  29.8167820  28.6964800  32.7460600  28.6865250
  21.9314530  18.3403510  22.3824620  21.8029160  18.3321410  23.3309540
  21.1076550  18.6786600  22.0315630  29.6067440  31.5104550  27.8571850
  30.2489670  30.8097710  27.9704020  30.1316790  32.2902990  27.6768740
  33.4523160  31.7953170  17.5810990  33.2260740  31.0783610  18.1735630
  33.0619360  31.5465610  16.7432740  31.3805060  32.3099450  31.0607910
  31.7161300  32.8966140  31.7385830  30.4605400  32.1792160  31.2905700
  19.2339190  35.8220030  18.3555450  19.5936830  36.4209370  17.7012720
  19.0931530  36.3679920  19.1290480  18.9308460  20.0994630  31.8431320
  18.2166980  20.2991550  32.4483930  19.3503500  19.3234200  32.2146120
  33.0339410  29.7125110  19.2425150  32.7461110  30.1737800  20.0303030
  33.8291580  29.2522880  19.5109370  19.2181050  34.0874890  32.8297850
  19.3272170  33.1469630  32.6893240  18.5661610  34.3529640  32.1811580
  27.2093640  32.3590780  34.2295970  26.8890510  31.6400020  34.7741660
  26.5352000  33.0345850  34.3032030  25.2507810  33.2051230  19.1729120
  25.2417910  33.9380920  18.5573630  24.3306170  32.9582810  19.2656080
  20.8514450  28.4266120  19.9175880  20.2442400  29.1665020  19.9271180
  21.3263800  28.5165480  19.0914080  30.4247240  22.5916940  29.5932770
  30.7928060  21.7712150  29.9212340  29.5645440  22.6518830  30.0088420
  33.7909270  21.5473880  20.4020330  33.1622430  21.6519550  19.6878560
  33.2961190  21.7670660  21.1914210  28.2367410  33.2679470  17.8354310
  28.3379390  33.0643460  16.9056290  27.3369150  33.0137750  18.0402090
  25.7593300  23.8259830  21.8178210  25.0509450  24.2946170  22.2591820
  26.0437780  23.1681840  22.4523400  27.3849230  25.2456530  29.8170740
  27.8834480  25.7202350  30.4822590  27.5272180  24.3220050  30.0240770
  29.7908730  20.5510490  23.2574000  29.6676510  20.5696620  22.3083510
  30.7393290  20.5989430  23.3772400  26.8785520  35.7865790  22.5301980
  27.1327020  35.7487180  21.6081350  25.9298000  35.6599120  22.5230230
  23.9628320  22.1344910  19.1928920  24.8118850  22.5715060  19.1269110
  23.5959590  22.4465170  20.0200980  34.5916090  21.4624490  30.6599130
  34.0889690  22.2029890  30.9992940  35.4072750  21.8508490  30.3435920
  32.8838100  26.7057670  24.1060490  31.9428240  26.7207900  24.2808180
  33.1982170  25.9193630  24.5520790  22.8619740  28.3877270  17.6664450
  23.6283010  28.2758630  18.2289880  22.9394430  27.6915240  17.0141220
  21.5566500  25.8202340  18.3497340  21.6370090  24.8729850  18.4614740
  22.4486250  26.1509220  18.4558000  34.8863680  33.8766520  25.7814750
  35.0111100  34.6997690  26.2538560  35.7529240  33.6657250  25.4338900
  22.3581210  35.9697730  25.4531880  23.0943690  35.4213190  25.7240450
  22.7422130  36.8353740  25.3137870  19.2426690  32.0371300  21.3273390
  18.3166470  32.2792440  21.3178800  19.7083120  32.8645560  21.2058140
  21.3639490  35.1543800  34.6417460  22.1652220  35.4755850  35.0552860
  20.8491310  34.7939380  35.3637370  25.4683520  35.1428040  17.2757450
  26.2612130  35.4316870  16.8239240  24.9487870  34.7120210  16.5969930
  30.2004120  31.2623670  34.5892870  29.5942280  31.2855270  33.8488620
  29.8958230  30.5306710  35.1260120  31.6304490  34.9903960  33.2002280
  32.5826240  34.9061980  33.1502520  31.4832710  35.6545670  33.8736070
  34.5213690  34.3698170  18.6994190  34.2355200  33.9563310  17.8848370
  34.3233240  35.2985880  18.5794710  19.0837300  27.6417260  33.5853510
  19.5876320  27.0624540  34.1569740  18.3444720  27.9257490  34.1229880
  25.9860920  30.3631450  17.1399800  25.8811560  29.7483800  17.8661180
  25.8185140  29.8397340  16.3562810  26.1375240  29.0488250  33.1189030
  25.3720910  29.6173250  33.0343700  26.3191200  28.7564460  32.2257260
  29.2263650  29.4251480  17.7441790  28.6773750  29.8720780  18.3884530
  29.8482910  28.9200730  18.2679460  21.1160380  25.7846850  34.4803580
  21.1565720  25.4860720  35.3888810  21.9705880  26.1854460  34.3211100
  24.8938770  28.3842400  19.6407090  25.3155190  28.2182270  20.4838480
  25.0189610  27.5742630  19.1462230  23.0566190  24.3638950  32.4478070
  22.5262650  23.8729900  31.8201410  23.7254260  24.7923150  31.9136000
  27.4066410  27.4080010  16.8884190  27.9272070  26.6929030  16.5225340
  28.0534810  28.0465880  17.1884700  31.9544250  28.8308410  32.2119260
  32.3685270  28.9853490  33.0609680  31.0195250  28.9563630  32.3745040
  32.4266420  26.1704570  34.2158410  33.0087190  25.4156890  34.1278890
  32.6028190  26.7012010  33.4389890  23.5438490  21.3301320  32.5275360
  23.4495360  20.7122070  31.8026230  22.9635880  22.0567610  32.3005270
  26.3099930  19.8874560  29.5602750  25.8617230  19.9098820  28.7148300
  25.6765130  19.4893580  30.1573050  26.7159480  28.7828890  30.1815190
  27.1347590  29.6261620  30.0091430  25.7968110  28.9200930  29.9521970
  29.0523380  26.5145070  31.5653030  29.1719590  25.9186210  32.3047870
  29.9117380  26.5514760  31.1454330  31.3911280  27.0682260  30.1415540
  30.8646500  27.5924880  29.5380680  31.7342620  27.7009650  30.7725270
  23.7897670  24.4575630  16.5865250  23.5886730  23.5942990  16.9478590
  23.6189720  24.3708990  15.6486850  24.5666900  35.0881900  31.2972920
  24.0287990  35.8127960  30.9781620  24.8200860  34.6112240  30.5070260
  25.8192150  23.0566420  32.8228850  26.4091840  22.7482270  33.5106670
  25.0012390  22.5846170  32.9788750  30.6385580  22.6732230  33.0561870
  29.9501100  22.0113770  32.9911860  31.3591600  22.2270500  33.5010330
  31.2685980  19.2683860  19.1152130  31.5488270  18.4251760  19.4711550
  30.4951710  19.5006970  19.6290880  22.5880470  21.5576250  16.5743130
  22.8906370  21.5643680  15.6662280  23.3275060  21.2074110  17.0710790
  27.4229110  36.3233110  31.5559570  27.3487810  37.2268250  31.8631940
  26.5207950  36.0045010  31.5281640  25.8065400  20.5010870  17.5599330
  25.4587400  19.8234860  16.9801780  26.0078170  20.0400380  18.3742720
  27.9714440  35.4891620  19.1785930  28.8665230  35.8276590  19.2004690
  28.0032070  34.7671030  18.5510210  21.6110600  30.8618670  17.4072930
  22.0485470  31.4048340  18.0630510  22.0958330  30.0365620  17.4169270
  18.8256400  33.6507700  24.8593190  19.1559410  32.7828760  24.6271830
  19.2547400  33.8566220  25.6898150  23.4218320  31.9816710  22.5195160
  23.1213860  31.8581680  23.4199070  23.3155810  31.1225300  22.1110890
  19.3146610  34.5178290  27.5974820  18.8777600  34.6979090  28.4298970
  19.8824290  35.2752910  27.4556540  36.1910240  31.7613110  17.2221840
  35.3603200  31.8289760  17.6929070  36.3682070  32.6517230  16.9188700
  35.6466700  28.5060590  19.7256040  36.4085610  29.0757240  19.8315730
  35.6621070  27.9387790  20.4964350  19.1471040  27.0298520  23.9563700
  18.4919880  26.7610160  23.3123400  19.9848990  26.9203000  23.5065680
  36.6526670  29.3610690  24.5697970  37.0235500  28.5778010  24.1633940
  37.2928600  30.0499790  24.3915270  33.6360430  30.7447270  29.9828290
  32.8220270  31.1744430  30.2454080  34.0434630  31.3565680  29.3697340
  35.6985870  28.7994960  16.8828560  35.9734710  29.7073840  16.7547780
  35.5096610  28.7357490  17.8190550  32.0961480  21.8239810  18.1782190
  32.5146360  21.6370790  17.3378850  31.7897540  20.9718860  18.4885120
  35.5951210  26.7363950  21.8757990  35.2194810  25.9691880  21.4439280
  34.8654330  27.1186650  22.3632920  20.1846970  27.4151090  28.4967040
  20.5520010  27.3278490  29.3763060  19.6157790  26.6517640  28.3973900
  34.9850830  25.8835470  31.5097510  34.7536920  25.6548220  30.6095460
  35.2455380  26.8035020  31.4642400  19.7362970  24.3260180  32.4025460
  18.8419020  24.2926940  32.7419170  20.2760520  24.5246970  33.1676710
  33.4238900  21.1091900  34.2877210  34.3009080  21.1175300  34.6711210
  33.4359740  20.3722740  33.6769560  18.3609120  24.2397450  19.8989030
  17.4573200  24.5027650  19.7240690  18.8449740  24.5108620  19.1188990
  34.8702170  24.9621440  25.1765230  35.3939650  24.4684090  24.5455400
  35.4561590  25.0971800  25.9212800  35.0491890  25.0461310  28.6984780
  34.0994600  25.0124850  28.8129770  35.2304900  25.9561420  28.4634550
  20.9036330  23.2962990  17.8083410  21.6128030  22.8746210  17.3230690
  20.1876270  23.3638220  17.1766760  20.5510490  19.3502320  16.8486060
  21.2738620  19.8911260  17.1667280  20.8235010  19.0765740  15.9727600
  34.3602140  24.2194790  21.1157640  34.8561260  23.9865660  21.9006520
  34.1618210  23.3806630  20.6995280  20.2402680  18.6008510  26.7508680
  20.8878870  18.0505890  26.3103840  20.6604520  18.8551660  27.5724490
  35.7889300  22.8555740  23.6495320  35.6788580  22.7011780  24.5877590
  36.5496890  22.3276680  23.4070730  34.1355020  18.7949870  30.1078320
  34.7727240  19.4084010  30.4737510  34.2829910  18.8310530  29.1627550
  36.6779570  20.6863660  16.8901460  37.6028880  20.5544840  16.6819750
  36.6555360  20.7656480  17.8437910  36.7518060  21.4574320  19.5158170
  35.9569560  21.3919440  20.0451080  36.9561340  22.3924960  19.5043520
  33.6936480  35.4965870  23.5096560  34.2895550  35.1750440  22.8330980
  33.9514630  35.0237690  24.3009830  19.9934680  18.7564180  29.4934000
  19.6449500  19.2128000  30.2592180  19.6622380  17.8621310  29.5756430
  21.5999050  31.9283780  33.6587190  21.5568680  31.5576690  34.5401650
  21.7310060  32.8661350  33.7989010  25.3005080  33.4843370  29.2596910
  25.0596440  33.7517930  28.3727430  26.2407720  33.6549100  29.3147770
  27.5059500  19.9476060  33.0153420  27.4448390  20.5397890  33.7648830
  28.4459880  19.8402020  32.8703680  30.1434060  19.6046120  32.6545710
  30.7574470  19.9225410  31.9926790  30.6883620  19.1194710  33.2741570
  20.6655320  18.2840380  32.7684770  21.2138310  18.1028430  32.0050880
  20.7310630  17.4934490  33.3041080  21.4387080  34.8746030  30.7784970
  20.8447400  34.7430730  31.5175010  21.4310920  34.0384170  30.3127070
  30.8842100  18.1678260  28.9815000  30.0101940  18.5013370  28.7787930
  30.7752850  17.6951440  29.8066870  31.7914080  20.3749130  30.3656720
  31.4627440  19.5600890  29.9858450  32.7396380  20.3318940  30.2422410
  34.2448690  36.1461170  27.3394290  33.7851660  36.8976980  26.9652310
  33.6161150  35.4267640  27.2809090  21.0699310  32.2404410  29.7293010
  20.3433370  31.6209700  29.6618960  21.1308460  32.6345020  28.8591090
  24.6744410  34.4549410  26.5142420  25.1909430  33.8436770  25.9890680
  25.3241790  34.9578190  27.0053430  27.4139910  35.3457900  27.3411400
  27.7017720  35.0912200  26.4644410  27.9263130  34.7935260  27.9316970
  28.6316920  19.0848100  27.9207910  27.8488710  19.5593600  28.2004670
  28.3379850  18.1802930  27.8121090  33.1837990  19.7871200  25.9657000
  33.6246080  19.7316300  25.1178600  32.9145580  20.7029210  26.0367180
  35.0476560  19.4186440  23.9765820  34.9864960  18.4747660  23.8296840
  35.8268590  19.5266530  24.5219280  19.3529310  35.5578800  22.9389770
  19.1851350  34.9249480  23.6371660  18.4863820  35.7638200  22.5883960
  19.9757330  19.3895580  20.4421630  20.7336690  19.5024460  19.8685660
  19.5134500  20.2264780  20.3965060  26.5171140  21.5034850  23.4323940
  25.7045650  21.1291740  23.0919820  27.0212780  20.7479930  23.7345130
  31.0196120  18.1677300  24.6707010  31.6225490  18.7397510  25.1455530
  30.2789110  18.7316740  24.4480910  34.1630720  18.5698860  19.9447290
  34.3581350  19.4682310  20.2114720  33.3760590  18.3385940  20.4380240
  20.9592010  34.2512030  20.3839910  20.4339630  34.6320060  19.6801870
  20.8836590  34.8762800  21.1049620  22.3482480  19.9159630  18.9823600
  22.8775240  19.1289430  18.8531550  22.9810800  20.5950820  19.2159130
  24.5420320  19.6534770  22.0368990  23.9123060  18.9522080  22.2039120
  24.0025460  20.4138900  21.8202150  27.4812270  36.2674000  34.7079600
  28.4079580  36.0318270  34.7515560  27.4662700  37.0946000  34.2265630
  35.7157330  35.8099570  21.7053850  35.8909520  35.1237310  21.0614770
  35.0178900  36.3346620  21.3130520  24.6675880  18.9318750  34.4721480
  24.3860150  19.4352350  33.7082300  25.0495580  18.1340500  34.1063610
  23.5584980  36.1994410  19.2589160  24.2903800  35.9153690  18.7113050
  23.8178650  35.9607690  20.1488540  22.7199770  32.3159140  19.2635490
  22.0908650  32.7844240  19.8121320  22.8347600  31.4708360  19.6981680
  31.2691340  18.3472330  35.0501950  31.1556790  18.6666940  35.9453470
  32.0861080  18.7484840  34.7539230  30.1749490  26.3664800   5.4136690
  30.0943540  25.4519410   5.1428400  29.7613910  26.8631870   4.7076400
  28.3067530  28.1443820   7.2945960  27.5309630  27.6644260   7.5844530
  28.9580460  27.4649470   7.1202120  22.3233360  28.4563630   8.1721720
  21.4918240  28.2012340   8.5718230  22.9314340  28.5274400   8.9079640
  32.3274960  32.5504010   6.0745090  31.8656490  31.7791250   6.4032260
  33.1400510  32.5770080   6.5797540  22.3034620  32.4903720   8.3679740
  22.6062660  31.6001460   8.1889960  23.0478210  33.0473940   8.1401990
  18.6958320  26.0171170   7.8403810  19.2674430  25.2493370   7.8407450
  18.6959860  26.3159930   6.9310420  28.5538270  34.8362020   5.6949080
  27.9349710  35.2919520   5.1243520  29.4090050  34.9913480   5.2938780
  27.7476520  30.8201010   7.3016120  27.6784800  29.8790950   7.1405250
  28.5096380  30.9102420   7.8738690  19.9383190  21.4255530   9.6272740
  19.7586030  20.5281280   9.9075500  19.5363270  21.9727400  10.3019690
  28.7781690  23.6271390   7.5285050  29.1546510  22.7543270   7.4158720
  28.6801200  23.9630090   6.6375490  22.9086700  21.9997020   2.9902490
  23.0153450  22.9000750   3.2971250  21.9979060  21.9514990   2.6997140
  32.5605810  21.1221830   4.4613390  33.3815430  20.6318400   4.5038870
  32.5939890  21.7119490   5.2145230  20.5569860  23.9216030   8.2355080
  21.2379970  24.1854400   8.8542480  20.2417910  23.0816900   8.5693090
  24.7494430  24.9683390   7.3227670  25.2572650  25.4664360   7.9632690
  25.2807670  24.1918590   7.1467030  36.8505360  23.1388580  11.0257020
  36.1457530  23.5270290  10.5072130  37.1163280  23.8338870  11.6277950
  23.0330530  19.6081950  11.5891090  23.0348970  20.1254340  10.7836990
  22.2034840  19.1312130  11.5661020  29.4201620  29.7201260   3.0880990
  28.8018890  30.1850710   2.5243710  29.9324870  30.4128740   3.5050500
  24.2833380  29.2477130   9.7664590  23.9502760  29.8746050  10.4085660
  24.4600060  29.7739010   8.9866260  32.7967290  23.0622210   7.2340930
  32.0922860  23.3507100   7.8144040  33.1579450  23.8722320   6.8740490
  22.7145860  21.3191910   9.5961540  23.0562670  22.1633960   9.3015410
  21.7761670  21.4675650   9.7126880  23.4952480  31.2157930  11.5813770
  24.1126480  31.8909010  11.2998220  22.6345600  31.6245910  11.4901270
  34.4130070  32.6797340   9.4968410  33.7293590  33.3496450   9.4885080
  34.9524360  32.8777990   8.7313270  35.8654210  22.5077000   7.6250140
  34.9179120  22.5415980   7.7565570  36.1904200  23.3215950   8.0099500
  26.3973750  18.8074180   5.9206130  26.7048730  18.2521070   5.2041630
  25.4674450  18.9418640   5.7379120  31.9488810  34.5241470   8.2113590
  31.9615970  34.1203760   7.3435850  31.3964030  35.2988760   8.1075020
  33.2434230  31.2457690   3.3003760  33.1330560  30.3032020   3.4253180
  33.2402480  31.6073330   4.1866520  31.3474250  29.4271310   9.5396200
  31.7643040  29.2131420   8.7049660  32.0714070  29.6844100  10.1104820
  28.7854510  26.8723010   2.6566250  27.8583790  26.8060390   2.8854720
  28.9379330  27.8103140   2.5421490  35.2936350  27.8258530   9.6312440
  34.4654980  27.8951620   9.1562570  35.8886830  28.4112840   9.1628270
  32.8151800  28.4343310   3.1601500  32.1964220  28.0962860   2.5127800
  32.7976250  27.7903070   3.8680690  32.2578360  24.6127850  10.5767310
  31.8449540  25.4381560  10.8307300  31.5254310  24.0272890  10.3843670
  24.3911150  27.3987750   5.4385980  23.9868150  26.6865000   4.9431880
  24.4774270  27.0540990   6.3274020  24.8592850  31.0855310   7.6025190
  24.5621140  30.4800780   6.9232970  25.8092670  31.1232620   7.4914550
  23.1039770  24.1730960   9.2185020  23.6554360  24.2826300   8.4438270
  23.6183280  24.5468560   9.9340250  32.9478460  34.6587180  11.2648290
  32.4709020  35.4659370  11.0720900  32.2640250  34.0065510  11.4174500
  23.9511280  30.8237000  14.2532990  23.0539810  31.0476970  14.5006390
  23.9764150  30.9471940  13.3044390  22.7782500  27.6950320  12.8290360
  22.6390270  28.5673120  13.1977760  21.8963860  27.3523130  12.6838300
  29.1011880  32.6126190   4.1355490  29.5407790  33.3550520   3.7210880
  29.0398770  32.8552760   5.0594450  24.5762850  33.6372020  15.0375510
  24.5478280  34.0414970  14.1703940  24.4127820  32.7082380  14.8747110
  21.0915780  26.2932730   2.9392630  20.9713380  27.0194820   2.3273900
  20.7816670  25.5235640   2.4620540  36.5277670  34.4199120  16.3339680
  37.0037390  34.8982010  17.0128760  37.1484830  34.3516610  15.6085180
  18.7301150  29.4647870   8.7461270  18.8081570  29.5996640   7.8016990
  19.3442830  28.7563760   8.9389390  19.9748780  31.1648060   5.1567450
  19.5676860  31.3062650   4.3021050  20.8661790  30.8808220   4.9538660
  35.9310920  31.6111970  13.4939690  36.0573980  31.3723850  12.5756870
  35.9732300  30.7796510  13.9661770  29.7927660  35.3139970  12.0634500
  30.3072330  35.2247980  12.8656930  28.9496740  35.6599670  12.3562410
  24.2470440  35.3793840   3.2690120  24.0712920  34.4629380   3.0557920
  23.3926180  35.7381130   3.5087920  31.0358120  34.7345580   4.1264990
  31.4915070  33.9534960   4.4403610  31.3750640  35.4452400   4.6706170
  35.7834930  23.6644430  14.4589430  35.1679200  24.1724100  13.9304890
  35.4631350  22.7642760  14.4015370  18.7860670  30.5062040  11.2855730
  18.9491710  30.0367400  10.4675100  19.2513120  29.9985600  11.9504570
  23.5579440  19.6367800   6.3216300  23.1147590  20.4177340   5.9900820
  24.1164430  19.9597690   7.0287240  27.8449250  22.5036320  11.9251620
  27.3828620  22.7119340  12.7371560  27.4427360  21.6895670  11.6222290
  32.8453760  23.7245270  13.0548280  31.9947350  23.4251020  13.3757350
  32.6855550  23.9687280  12.1432100  29.9403470  25.2247020  15.1547070
  30.2656880  24.3910770  14.8149300  30.7283800  25.7475540  15.3025400
  25.5955340  20.1815130   8.1805900  25.8927670  21.0877960   8.0997920
  26.1440900  19.6933910   7.5665470  23.3493660  24.7601370   4.0497550
  23.1234580  24.5438540   4.9544170  22.5686190  25.1929830   3.7043520
  30.5791420  24.7664740   2.6488200  29.9800310  25.4900540   2.4651820
  31.1271030  24.7041520   1.8664650  25.7892870  25.6586950  14.7157820
  25.6936470  24.7181680  14.5658220  26.6324850  25.8802020  14.3205890
  29.1856290  23.4028280   4.6791480  29.5785860  23.7200480   3.8660170
  29.5473140  22.5240160   4.7936000  20.9203410  22.0700620  12.8691600
  20.5266800  22.9175830  13.0764380  20.2321810  21.4326990  13.0600240
  27.4948460  22.1535590  15.9388340  26.8046780  21.9607790  16.5734430
  28.2380760  22.4370230  16.4712640  18.2220460  19.9929080   6.9021680
  17.9333510  20.5631940   7.6146660  18.9666220  19.5133530   7.2652910
  29.7711430  25.9934030   8.7742260  29.0392550  26.5020840   9.1232360
  29.3735770  25.1764010   8.4731040  26.2088820  22.6688230   7.1794750
  26.2124880  22.2278180   6.3299290  27.1039940  22.9905560   7.2866570
  22.0591200  22.5514720   6.1388960  21.7191250  23.0289950   6.8956010
  21.2968520  22.0979840   5.7790060  30.2337340  21.4467710   8.1865200
  30.2510080  21.8976360   9.0307050  29.9852920  20.5473350   8.3998640
  33.6608090  18.8599890  14.0251580  33.9853860  18.1289550  14.5509560
  33.6964600  18.5413530  13.1232570  20.3599650  29.8813470  13.4451540
  19.9754440  29.2407140  14.0434500  20.6711840  30.5849590  14.0146270
  26.5096790  26.7290010   8.9260160  26.8766920  26.2548580   9.6721500
  26.3201850  27.6031580   9.2668500  19.3737280  21.4733700   5.0553630
  19.0884200  21.1089370   5.8932250  19.3116140  20.7414160   4.4416770
  24.2996160  25.7698650  11.2444370  23.9953230  26.6490630  11.4694730
  25.2542620  25.8298440  11.2801810  22.8277950  29.9759640   1.8411220
  22.0540210  29.4357260   1.6809940  23.5572580  29.4566250   1.5028980
  33.5865930  28.9725000   7.6337610  34.3065050  29.4680290   7.2433720
  33.3847750  28.2942890   6.9891480  29.0475870  20.3662960   1.7767000
  28.2340480  19.8676130   1.7012310  28.8537820  21.2061210   1.3603350
  28.9684730  29.0434060  13.5206610  28.9022040  28.1229730  13.2664200
  28.3389870  29.1409500  14.2351250  22.8715350  29.6440020   5.4790030
  23.3894020  28.8408280   5.4246920  22.4199370  29.5819160   6.3206860
  20.3559890  26.6101390  12.3915730  19.9974830  27.2755240  12.9789070
  20.0614450  25.7784940  12.7628350  23.5573010  27.0685630  15.2755280
  23.2573150  27.2142810  14.3783100  24.3284250  26.5090920  15.1828670
  28.9001460  31.8654630  13.2710410  28.9146000  30.9335590  13.0529320
  28.1926560  31.9514390  13.9100180  35.1112670  28.5061970  12.6178990
  34.3860860  29.0990750  12.4208380  35.6388130  28.4985510  11.8192360
  35.0625780  32.9036710   2.2691150  34.4201940  32.2492330   2.5434870
  34.6756440  33.3091800   1.4931820  30.6412260  30.2322140   6.1162840
  30.9936080  29.6350270   5.4564210  29.7574590  29.9066370   6.2871090
  26.7275540  30.9919830   3.5233250  27.4146670  31.5389040   3.9040840
  25.9407960  31.5360560   3.5582860  26.0302750  27.9965860   3.1358610
  26.4865530  28.8071110   3.3618800  25.6790960  27.6789000   3.9677100
  28.3335360  33.5072200  10.3650910  28.9777580  33.7131580  11.0424330
  28.6964800  32.7460600   9.9121760  21.9314530  18.3403510   3.6081130
  21.8029160  18.3321410   4.5566050  21.1076550  18.6786600   3.2572140
  29.6067440  31.5104550   9.0828360  30.2489670  30.8097710   9.1960530
  30.1316790  32.2902990   8.9025250  31.3805060  32.3099450  12.2864420
  31.7161300  32.8966140  12.9642340  30.4605400  32.1792160  12.5162210
  18.9308460  20.0994630  13.0687830  18.2166980  20.2991550  13.6740440
  19.3503500  19.3234200  13.4402630  19.2181050  34.0874890  14.0554360
  19.3272170  33.1469630  13.9149750  18.5661610  34.3529640  13.4068090
  27.2093640  32.3590780  15.4552480  26.8890510  31.6400020  15.9998170
  26.5352000  33.0345850  15.5288540  30.4247240  22.5916940  10.8189280
  30.7928060  21.7712150  11.1468850  29.5645440  22.6518830  11.2344930
  25.7593300  23.8259830   3.0434720  25.0509450  24.2946170   3.4848330
  26.0437780  23.1681840   3.6779910  27.3849230  25.2456530  11.0427250
  27.8834480  25.7202350  11.7079100  27.5272180  24.3220050  11.2497280
  29.7908730  20.5510490   4.4830510  29.6676510  20.5696620   3.5340020
  30.7393290  20.5989430   4.6028910  26.8785520  35.7865790   3.7558490
  27.1327020  35.7487180   2.8337860  25.9298000  35.6599120   3.7486740
  34.5916090  21.4624490  11.8855640  34.0889690  22.2029890  12.2249450
  35.4072750  21.8508490  11.5692430  32.8838100  26.7057670   5.3317000
  31.9428240  26.7207900   5.5064690  33.1982170  25.9193630   5.7777300
  34.8863680  33.8766520   7.0071260  35.0111100  34.6997690   7.4795070
  35.7529240  33.6657250   6.6595410  22.3581210  35.9697730   6.6788390
  23.0943690  35.4213190   6.9496960  22.7422130  36.8353740   6.5394380
  19.2426690  32.0371300   2.5529900  18.3166470  32.2792440   2.5435310
  19.7083120  32.8645560   2.4314650  21.3639490  35.1543800  15.8673970
  22.1652220  35.4755850  16.2809370  20.8491310  34.7939380  16.5893880
  30.2004120  31.2623670  15.8149380  29.5942280  31.2855270  15.0745130
  29.8958230  30.5306710  16.3516630  31.6304490  34.9903960  14.4258790
  32.5826240  34.9061980  14.3759030  31.4832710  35.6545670  15.0992580
  19.0837300  27.6417260  14.8110020  19.5876320  27.0624540  15.3826250
  18.3444720  27.9257490  15.3486390  26.1375240  29.0488250  14.3445540
  25.3720910  29.6173250  14.2600210  26.3191200  28.7564460  13.4513770
  33.2798590  30.7793580  14.9020560  34.0208060  31.1169340  14.3988020
  32.5171270  30.9485640  14.3490330  21.1160380  25.7846850  15.7060090
  21.1565720  25.4860720  16.6145320  21.9705880  26.1854460  15.5467610
  23.0566190  24.3638950  13.6734580  22.5262650  23.8729900  13.0457920
  23.7254260  24.7923150  13.1392510  31.9544250  28.8308410  13.4375770
  32.3685270  28.9853490  14.2866190  31.0195250  28.9563630  13.6001550
  32.4266420  26.1704570  15.4414920  33.0087190  25.4156890  15.3535400
  32.6028190  26.7012010  14.6646400  23.5438490  21.3301320  13.7531870
  23.4495360  20.7122070  13.0282740  22.9635880  22.0567610  13.5261780
  26.3099930  19.8874560  10.7859260  25.8617230  19.9098820   9.9404810
  25.6765130  19.4893580  11.3829560  26.7159480  28.7828890  11.4071700
  27.1347590  29.6261620  11.2347940  25.7968110  28.9200930  11.1778480
  29.0523380  26.5145070  12.7909540  29.1719590  25.9186210  13.5304380
  29.9117380  26.5514760  12.3710840  31.3911280  27.0682260  11.3672050
  30.8646500  27.5924880  10.7637190  31.7342620  27.7009650  11.9981780
  24.5666900  35.0881900  12.5229430  24.0287990  35.8127960  12.2038130
  24.8200860  34.6112240  11.7326770  25.8192150  23.0566420  14.0485360
  26.4091840  22.7482270  14.7363180  25.0012390  22.5846170  14.2045260
  30.6385580  22.6732230  14.2818380  29.9501100  22.0113770  14.2168370
  31.3591600  22.2270500  14.7266840  27.4229110  36.3233110  12.7816080
  27.3487810  37.2268250  13.0888450  26.5207950  36.0045010  12.7538150
  18.8256400  33.6507700   6.0849700  19.1559410  32.7828760   5.8528340
  19.2547400  33.8566220   6.9154660  23.4218320  31.9816710   3.7451670
  23.1213860  31.8581680   4.6455580  23.3155810  31.1225300   3.3367400
  19.3146610  34.5178290   8.8231330  18.8777600  34.6979090   9.6555480
  19.8824290  35.2752910   8.6813050  34.9508790  34.0195290  13.1108640
  34.3510780  34.0787850  12.3672560  35.0802690  33.0800270  13.2405490
  19.1471040  27.0298520   5.1820210  18.4919880  26.7610160   4.5379910
  19.9848990  26.9203000   4.7322190  36.6526670  29.3610690   5.7954480
  37.0235500  28.5778010   5.3890450  37.2928600  30.0499790   5.6171780
  33.6360430  30.7447270  11.2084800  32.8220270  31.1744430  11.4710590
  34.0434630  31.3565680  10.5953850  35.5951210  26.7363950   3.1014500
  35.2194810  25.9691880   2.6695790  34.8654330  27.1186650   3.5889430
  20.1846970  27.4151090   9.7223550  20.5520010  27.3278490  10.6019570
  19.6157790  26.6517640   9.6230410  34.9850830  25.8835470  12.7354020
  34.7536920  25.6548220  11.8351970  35.2455380  26.8035020  12.6898910
  19.7362970  24.3260180  13.6281970  18.8419020  24.2926940  13.9675680
  20.2760520  24.5246970  14.3933220  33.4238900  21.1091900  15.5133720
  34.3009080  21.1175300  15.8967720  33.4359740  20.3722740  14.9026070
  34.8702170  24.9621440   6.4021740  35.3939650  24.4684090   5.7711910
  35.4561590  25.0971800   7.1469310  35.0491890  25.0461310   9.9241290
  34.0994600  25.0124850  10.0386280  35.2304900  25.9561420   9.6891060
  34.3602140  24.2194790   2.3414150  34.8561260  23.9865660   3.1263030
  34.1618210  23.3806630   1.9251790  20.2402680  18.6008510   7.9765190
  20.8878870  18.0505890   7.5360350  20.6604520  18.8551660   8.7981000
  35.7889300  22.8555740   4.8751830  35.6788580  22.7011780   5.8134100
  36.5496890  22.3276680   4.6327240  34.1355020  18.7949870  11.3334830
  34.7727240  19.4084010  11.6994020  34.2829910  18.8310530  10.3884060
  33.6936480  35.4965870   4.7353070  34.2895550  35.1750440   4.0587490
  33.9514630  35.0237690   5.5266340  19.9934680  18.7564180  10.7190510
  19.6449500  19.2128000  11.4848690  19.6622380  17.8621310  10.8012940
  21.5999050  31.9283780  14.8843700  21.5568680  31.5576690  15.7658160
  21.7310060  32.8661350  15.0245520  25.3005080  33.4843370  10.4853420
  25.0596440  33.7517930   9.5983940  26.2407720  33.6549100  10.5404280
  27.5059500  19.9476060  14.2409930  27.4448390  20.5397890  14.9905340
  28.4459880  19.8402020  14.0960190  30.1434060  19.6046120  13.8802220
  30.7574470  19.9225410  13.2183300  30.6883620  19.1194710  14.4998080
  36.5609240  35.5037750  11.2864060  36.0667520  35.9006620  10.5691190
  35.9522530  34.8786960  11.6801340  20.6655320  18.2840380  13.9941280
  21.2138310  18.1028430  13.2307390  20.7310630  17.4934490  14.5297590
  21.4387080  34.8746030  12.0041480  20.8447400  34.7430730  12.7431520
  21.4310920  34.0384170  11.5383580  30.8842100  18.1678260  10.2071510
  30.0101940  18.5013370  10.0044440  30.7752850  17.6951440  11.0323380
  31.7914080  20.3749130  11.5913230  31.4627440  19.5600890  11.2114960
  32.7396380  20.3318940  11.4678920  34.2448690  36.1461170   8.5650800
  33.7851660  36.8976980   8.1908820  33.6161150  35.4267640   8.5065600
  21.0699310  32.2404410  10.9549520  20.3433370  31.6209700  10.8875470
  21.1308460  32.6345020  10.0847600  24.6744410  34.4549410   7.7398930
  25.1909430  33.8436770   7.2147190  25.3241790  34.9578190   8.2309940
  27.4139910  35.3457900   8.5667910  27.7017720  35.0912200   7.6900920
  27.9263130  34.7935260   9.1573480  28.6316920  19.0848100   9.1464420
  27.8488710  19.5593600   9.4261180  28.3379850  18.1802930   9.0377600
  33.1837990  19.7871200   7.1913510  33.6246080  19.7316300   6.3435110
  32.9145580  20.7029210   7.2623690  35.0476560  19.4186440   5.2022330
  34.9864960  18.4747660   5.0553350  35.8268590  19.5266530   5.7475790
  19.3529310  35.5578800   4.1646280  19.1851350  34.9249480   4.8628170
  18.4863820  35.7638200   3.8140470  26.5171140  21.5034850   4.6580450
  25.7045650  21.1291740   4.3176330  27.0212780  20.7479930   4.9601640
  31.0196120  18.1677300   5.8963520  31.6225490  18.7397510   6.3712040
  30.2789110  18.7316740   5.6737420  24.5420320  19.6534770   3.2625500
  23.9123060  18.9522080   3.4295630  24.0025460  20.4138900   3.0458660
  27.4812270  36.2674000  15.9336110  28.4079580  36.0318270  15.9772070
  27.4662700  37.0946000  15.4522140  35.7157330  35.8099570   2.9310360
  35.8909520  35.1237310   2.2871280  35.0178900  36.3346620   2.5387030
  24.6675880  18.9318750  15.6977990  24.3860150  19.4352350  14.9338810
  25.0495580  18.1340500  15.3320120  31.2691340  18.3472330  16.2758460
  31.1556790  18.6666940  17.1709980  32.0861080  18.7484840  15.9795740
  34.0489830  35.4943860  15.7577150  34.8415150  34.9993090  15.5503110
  34.3422980  36.1734000  16.3652760  30.1749490   7.5921310  61.7367160
  30.0943540   6.6775920  61.4658870  29.7613910   8.0888380  61.0306870
  28.3067530   9.3700330  63.6176430  27.5309630   8.8900770  63.9075000
  28.9580460   8.6905980  63.4432590  22.3233360   9.6820140  64.4952190
  21.4918240   9.4268850  64.8948700  22.9314340   9.7530910  65.2310110
  32.3274960  13.7760520  62.3975560  31.8656490  13.0047760  62.7262730
  33.1400510  13.8026590  62.9028010  22.3034620  13.7160230  64.6910210
  22.6062660  12.8257970  64.5120430  23.0478210  14.2730450  64.4632460
  20.7325310   4.6422030  58.2794580  19.8442010   4.9838000  58.1774460
  21.0166500   4.4422350  57.3875410  18.6958320   7.2427680  64.1634280
  19.2674430   6.4749880  64.1637920  18.6959860   7.5416440  63.2540890
  28.5538270  16.0618530  62.0179550  27.9349710  16.5176030  61.4473990
  29.4090050  16.2169990  61.6169250  27.7476520  12.0457520  63.6246590
  27.6784800  11.1047460  63.4635720  28.5096380  12.1358930  64.1969160
  19.9383190   2.6512040  65.9503210  19.7586030   1.7537790  66.2305970
  19.5363270   3.1983910  66.6250160  28.7781690   4.8527900  63.8515520
  29.1546510   3.9799780  63.7389190  28.6801200   5.1886600  62.9605960
  22.9086700   3.2253530  59.3132960  23.0153450   4.1257260  59.6201720
  21.9979060   3.1771500  59.0227610  32.5605810   2.3478340  60.7843860
  33.3815430   1.8574910  60.8269340  32.5939890   2.9376000  61.5375700
  20.5569860   5.1472540  64.5585550  21.2379970   5.4110910  65.1772950
  20.2417910   4.3073410  64.8923560  24.7494430   6.1939900  63.6458140
  25.2572650   6.6920870  64.2863160  25.2807670   5.4175100  63.4697500
  36.8505360   4.3645090  67.3487490  36.1457530   4.7526800  66.8302600
  37.1163280   5.0595380  67.9508420  29.4201620  10.9457770  59.4111460
  28.8018890  11.4107220  58.8474180  29.9324870  11.6385250  59.8280970
  24.2833380  10.4733640  66.0895060  23.9502760  11.1002560  66.7316130
  24.4600060  10.9995520  65.3096730  32.7967290   4.2878720  63.5571400
  32.0922860   4.5763610  64.1374510  33.1579450   5.0978830  63.1970960
  22.7145860   2.5448420  65.9192010  23.0562670   3.3890470  65.6245880
  21.7761670   2.6932160  66.0357350  23.4952480  12.4414440  67.9044240
  24.1126480  13.1165520  67.6228690  22.6345600  12.8502420  67.8131740
  18.7884820  11.6314300  56.7851090  18.4112800  12.1201400  56.0535990
  19.0457890  12.3039580  57.4157620  34.4130070  13.9053850  65.8198880
  33.7293590  14.5752960  65.8115550  34.9524360  14.1034500  65.0543740
  35.8654210   3.7333510  63.9480610  34.9179120   3.7672490  64.0796040
  36.1904200   4.5472460  64.3329970  31.9488810  15.7497980  64.5344060
  31.9615970  15.3460270  63.6666320  31.3964030  16.5245270  64.4305490
  33.2434230  12.4714200  59.6234230  33.1330560  11.5288530  59.7483650
  33.2402480  12.8329840  60.5096990  31.3474250  10.6527820  65.8626670
  31.7643040  10.4387930  65.0280130  32.0714070  10.9100610  66.4335290
  28.7854510   8.0979520  58.9796720  27.8583790   8.0316900  59.2085190
  28.9379330   9.0359650  58.8651960  28.7723590   4.3696520  55.9763880
  27.8327260   4.5310480  56.0616340  29.0906850   5.0882200  55.4299870
  35.2936350   9.0515040  65.9542910  34.4654980   9.1208130  65.4793040
  35.8886830   9.6369350  65.4858740  32.8151800   9.6599820  59.4831970
  32.1964220   9.3219370  58.8358270  32.7976250   9.0159580  60.1911160
  32.2578360   5.8384360  66.8997780  31.8449540   6.6638070  67.1537770
  31.5254310   5.2529400  66.7074140  24.3911150   8.6244260  61.7616450
  23.9868150   7.9121510  61.2662350  24.4774270   8.2797500  62.6504490
  24.8592850  12.3111820  63.9255660  24.5621140  11.7057290  63.2463440
  25.8092670  12.3489130  63.8145020  23.1039770   5.3987470  65.5415490
  23.6554360   5.5082810  64.7668740  23.6183280   5.7725070  66.2570720
  32.9478460  15.8843690  67.5878760  32.4709020  16.6915880  67.3951370
  32.2640250  15.2322020  67.7404970  30.9916500   8.8986630  56.4904720
  31.4309780   8.0609060  56.3442540  31.7044920   9.5316030  56.5768860
  29.1011880  13.8382700  60.4585960  29.5407790  14.5807030  60.0441350
  29.0398770  14.0809270  61.3824920  21.0915780   7.5189240  59.2623100
  20.9713380   8.2451330  58.6504370  20.7816670   6.7492150  58.7851010
  18.7301150  10.6904380  65.0691740  18.8081570  10.8253150  64.1247460
  19.3442830   9.9820270  65.2619860  19.9748780  12.3904570  61.4797920
  19.5676860  12.5319160  60.6251520  20.8661790  12.1064730  61.2769130
  31.7682060  16.8251820  57.8148970  31.6083200  16.5354760  58.7130800
  31.6028770  16.0491950  57.2794200  24.2470440  16.6050350  59.5920590
  24.0712920  15.6885890  59.3788390  23.3926180  16.9637640  59.8318390
  31.4708190  14.3339380  56.3746970  30.7773350  14.3316670  55.7149250
  32.2131050  13.9098700  55.9441140  31.0358120  15.9602090  60.4495460
  31.4915070  15.1791470  60.7634080  31.3750640  16.6708910  60.9936640
  18.7860670  11.7318550  67.6086200  18.9491710  11.2623910  66.7905570
  19.2513120  11.2242110  68.2735040  27.8449250   3.7292830  68.2482090
  27.3828620   3.9375850  69.0602030  27.4427360   2.9152180  67.9452760
  23.3493660   5.9857880  60.3728020  23.1234580   5.7695050  61.2774640
  22.5686190   6.4186340  60.0273990  30.5791420   5.9921250  58.9718670
  29.9800310   6.7157050  58.7882290  31.1271030   5.9298030  58.1895120
  29.1856290   4.6284790  61.0021950  29.5785860   4.9456990  60.1890640
  29.5473140   3.7496670  61.1166470  18.4090690   5.1605710  54.4354870
  18.3265360   6.1036470  54.5769860  18.0573750   5.0180620  53.5567220
  29.7711430   7.2190540  65.0972730  29.0392550   7.7277350  65.4462830
  29.3735770   6.4020520  64.7961510  26.2088820   3.8944740  63.5025220
  26.2124880   3.4534690  62.6529760  27.1039940   4.2162070  63.6097040
  22.0591200   3.7771230  62.4619430  21.7191250   4.2546460  63.2186480
  21.2968520   3.3236350  62.1020530  26.2708970   4.8956820  56.4931980
  26.3921790   4.8543300  57.4417800  25.8857480   5.7580970  56.3378710
  30.2337340   2.6724220  64.5095670  30.2510080   3.1232870  65.3537520
  29.9852920   1.7729860  64.7229110  25.2830470   7.2057960  55.8915280
  24.7147370   6.7576210  55.2651190  25.9919470   7.5650740  55.3580430
  26.5096790   7.9546520  65.2490630  26.8766920   7.4805090  65.9951970
  26.3201850   8.8288090  65.5898970  19.3737280   2.6990210  61.3784100
  19.0884200   2.3345880  62.2162720  19.3116140   1.9670670  60.7647240
  24.2996160   6.9955160  67.5674840  23.9953230   7.8747140  67.7925200
  25.2542620   7.0554950  67.6032280  22.8277950  11.2016150  58.1641690
  22.0540210  10.6613770  58.0040410  23.5572580  10.6822760  57.8259450
  33.5865930  10.1981510  63.9568080  34.3065050  10.6936800  63.5664190
  33.3847750   9.5199400  63.3121950  31.7624260   5.9639120  56.3959630
  32.6503880   6.2756350  56.2210970  31.7329350   5.0911370  56.0040210
  22.8715350  10.8696530  61.8020500  23.3894020  10.0664790  61.7477390
  22.4199370  10.8075670  62.6437330  27.7584850  12.1362810  57.0747800
  28.1000550  12.8805040  56.5791120  26.9297560  12.4493930  57.4372630
  34.0338530   7.2750960  55.8639490  33.9502250   7.7065180  55.0135930
  34.7532720   7.7349310  56.2966310  35.1112670   9.7318480  68.9409460
  34.3860860  10.3247260  68.7438850  35.6388130   9.7242020  68.1422830
  35.0625780  14.1293220  58.5921620  34.4201940  13.4748840  58.8665340
  34.6756440  14.5348310  57.8162290  30.6412260  11.4578650  62.4393310
  30.9936080  10.8606780  61.7794680  29.7574590  11.1322880  62.6101560
  26.7275540  12.2176340  59.8463720  27.4146670  12.7645550  60.2271310
  25.9407960  12.7617070  59.8813330  18.8667940   7.8349160  55.3380800
  19.7362790   8.1173960  55.6216720  18.3758260   8.6485030  55.2229610
  26.0302750   9.2222370  59.4589080  26.4865530  10.0327620  59.6849270
  25.6790960   8.9045510  60.2907570  28.3335360  14.7328710  66.6881380
  28.9777580  14.9388090  67.3654800  28.6964800  13.9717110  66.2352230
  29.6067440  12.7361060  65.4058830  30.2489670  12.0354220  65.5191000
  30.1316790  13.5159500  65.2255720  33.4523160  13.0209680  55.1297970
  33.2260740  12.3040120  55.7222610  33.0619360  12.7722120  54.2919720
  19.2339190  17.0476540  55.9042430  19.5936830  17.6465880  55.2499700
  19.0931530  17.5936430  56.6777460  33.0339410  10.9381620  56.7912130
  32.7461110  11.3994310  57.5790010  33.8291580  10.4779390  57.0596350
  25.2507810  14.4307740  56.7216100  25.2417910  15.1637430  56.1060610
  24.3306170  14.1839320  56.8143060  20.8514450   9.6522630  57.4662860
  20.2442400  10.3921530  57.4758160  21.3263800   9.7421990  56.6401060
  30.4247240   3.8173450  67.1419750  30.7928060   2.9968660  67.4699320
  29.5645440   3.8775340  67.5575400  33.7909270   2.7730390  57.9507310
  33.1622430   2.8776060  57.2365540  33.2961190   2.9927170  58.7401190
  28.2367410  14.4935980  55.3841290  28.3379390  14.2899970  54.4543270
  27.3369150  14.2394260  55.5889070  25.7593300   5.0516340  59.3665190
  25.0509450   5.5202680  59.8078800  26.0437780   4.3938350  60.0010380
  27.3849230   6.4713040  67.3657720  27.8834480   6.9458860  68.0309570
  27.5272180   5.5476560  67.5727750  29.7908730   1.7767000  60.8060980
  29.6676510   1.7953130  59.8570490  30.7393290   1.8245940  60.9259380
  26.8785520  17.0122300  60.0788960  27.1327020  16.9743690  59.1568330
  25.9298000  16.8855630  60.0717210  23.9628320   3.3601420  56.7415900
  24.8118850   3.7971570  56.6756090  23.5959590   3.6721680  57.5687960
  34.5916090   2.6881000  68.2086110  34.0889690   3.4286400  68.5479920
  35.4072750   3.0765000  67.8922900  32.8838100   7.9314180  61.6547470
  31.9428240   7.9464410  61.8295160  33.1982170   7.1450140  62.1007770
  22.8619740   9.6133780  55.2151430  23.6283010   9.5015140  55.7776860
  22.9394430   8.9171750  54.5628200  21.5566500   7.0458850  55.8984320
  21.6370090   6.0986360  56.0101720  22.4486250   7.3765730  56.0044980
  34.8863680  15.1023030  63.3301730  35.0111100  15.9254200  63.8025540
  35.7529240  14.8913760  62.9825880  22.3581210  17.1954240  63.0018860
  23.0943690  16.6469700  63.2727430  22.7422130  18.0610250  62.8624850
  19.2426690  13.2627810  58.8760370  18.3166470  13.5048950  58.8665780
  19.7083120  14.0902070  58.7545120  25.4683520  16.3684550  54.8244430
  26.2612130  16.6573380  54.3726220  24.9487870  15.9376720  54.1456910
  34.5213690  15.5954680  56.2481170  34.2355200  15.1819820  55.4335350
  34.3233240  16.5242390  56.1281690  25.9860920  11.5887960  54.6886780
  25.8811560  10.9740310  55.4148160  25.8185140  11.0653850  53.9049790
  29.2263650  10.6507990  55.2928770  28.6773750  11.0977290  55.9371510
  29.8482910  10.1457240  55.8166440  24.8938770   9.6098910  57.1894070
  25.3155190   9.4438780  58.0325460  25.0189610   8.7999140  56.6949210
  27.4066410   8.6336520  54.4371170  27.9272070   7.9185540  54.0712320
  28.0534810   9.2722390  54.7371680  26.7159480  10.0085400  67.7302170
  27.1347590  10.8518130  67.5578410  25.7968110  10.1457440  67.5008950
  31.3911280   8.2938770  67.6902520  30.8646500   8.8181390  67.0867660
  31.7342620   8.9266160  68.3212250  23.7897670   5.6832140  54.1352230
  23.5886730   4.8199500  54.4965570  23.6189720   5.5965500  53.1973830
  24.5666900  16.3138410  68.8459900  24.0287990  17.0384470  68.5268600
  24.8200860  15.8368750  68.0557240  22.5880470   2.7832760  54.1230110
  22.8906370   2.7900190  53.2149260  23.3275060   2.4330620  54.6197770
  27.9714440  16.7148130  56.7272910  28.8665230  17.0533100  56.7491670
  28.0032070  15.9927540  56.0997190  21.6110600  12.0875180  54.9559910
  22.0485470  12.6304850  55.6117490  22.0958330  11.2622130  54.9656250
  18.8256400  14.8764210  62.4080170  19.1559410  14.0085270  62.1758810
  19.2547400  15.0822730  63.2385130  23.4218320  13.2073220  60.0682140
  23.1213860  13.0838190  60.9686050  23.3155810  12.3481810  59.6597870
  19.3146610  15.7434800  65.1461800  18.8777600  15.9235600  65.9785950
  19.8824290  16.5009420  65.0043520  36.1910240  12.9869620  54.7708820
  35.3603200  13.0546270  55.2416050  36.3682070  13.8773740  54.4675680
  35.6466700   9.7317100  57.2743020  36.4085610  10.3013750  57.3802710
  35.6621070   9.1644300  58.0451330  19.1471040   8.2555030  61.5050680
  18.4919880   7.9866670  60.8610380  19.9848990   8.1459510  61.0552660
  36.6526670  10.5867200  62.1184950  37.0235500   9.8034520  61.7120920
  37.2928600  11.2756300  61.9402250  33.6360430  11.9703780  67.5315270
  32.8220270  12.4000940  67.7941060  34.0434630  12.5822190  66.9184320
  35.6985870  10.0251470  54.4315540  35.9734710  10.9330350  54.3034760
  35.5096610   9.9614000  55.3677530  32.0961480   3.0496320  55.7269170
  32.5146360   2.8627300  54.8865830  31.7897540   2.1975370  56.0372100
  35.5951210   7.9620460  59.4244970  35.2194810   7.1948390  58.9926260
  34.8654330   8.3443160  59.9119900  20.1846970   8.6407600  66.0454020
  20.5520010   8.5535000  66.9250040  19.6157790   7.8774150  65.9460880
  34.9850830   7.1091980  69.0584490  34.7536920   6.8804730  68.1582440
  35.2455380   8.0291530  69.0129380  18.3609120   5.4653960  57.4476010
  17.4573200   5.7284160  57.2727670  18.8449740   5.7365130  56.6675970
  34.8702170   6.1877950  62.7252210  35.3939650   5.6940600  62.0942380
  35.4561590   6.3228310  63.4699780  35.0491890   6.2717820  66.2471760
  34.0994600   6.2381360  66.3616750  35.2304900   7.1817930  66.0121530
  20.9036330   4.5219500  55.3570390  21.6128030   4.1002720  54.8717670
  20.1876270   4.5894730  54.7253740  34.3602140   5.4451300  58.6644620
  34.8561260   5.2122170  59.4493500  34.1618210   4.6063140  58.2482260
  35.7889300   4.0812250  61.1982300  35.6788580   3.9268290  62.1364570
  36.5496890   3.5533190  60.9557710  36.6779570   1.9120170  54.4388440
  37.6028880   1.7801350  54.2306730  36.6555360   1.9912990  55.3924890
  36.7518060   2.6830830  57.0645150  35.9569560   2.6175950  57.5938060
  36.9561340   3.6181470  57.0530500  33.6936480  16.7222380  61.0583540
  34.2895550  16.4006950  60.3817960  33.9514630  16.2494200  61.8496810
  25.3005080  14.7099880  66.8083890  25.0596440  14.9774440  65.9214410
  26.2407720  14.8805610  66.8634750  36.5609240  16.7294260  67.6094530
  36.0667520  17.1263130  66.8921660  35.9522530  16.1043470  68.0031810
  21.4387080  16.1002540  68.3271950  20.8447400  15.9687240  69.0661990
  21.4310920  15.2640680  67.8614050  34.2448690  17.3717680  64.8881270
  33.7851660  18.1233490  64.5139290  33.6161150  16.6524150  64.8296070
  21.0699310  13.4660920  67.2779990  20.3433370  12.8466210  67.2105940
  21.1308460  13.8601530  66.4078070  24.6744410  15.6805920  64.0629400
  25.1909430  15.0693280  63.5377660  25.3241790  16.1834700  64.5540410
  27.4139910  16.5714410  64.8898380  27.7017720  16.3168710  64.0131390
  27.9263130  16.0191770  65.4803950  19.3529310  16.7835310  60.4876750
  19.1851350  16.1505990  61.1858640  18.4863820  16.9894710  60.1370940
  26.5171140   2.7291360  60.9810920  25.7045650   2.3548250  60.6406800
  27.0212780   1.9736440  61.2832110  20.9592010  15.4768540  57.9326890
  20.4339630  15.8576570  57.2288850  20.8836590  16.1019310  58.6536600
  35.7157330  17.0356080  59.2540830  35.8909520  16.3493820  58.6101750
  35.0178900  17.5603130  58.8617500  23.5584980  17.4250920  56.8076140
  24.2903800  17.1410200  56.2600030  23.8178650  17.1864200  57.6975520
  22.7199770  13.5415650  56.8122470  22.0908650  14.0100750  57.3608300
  22.8347600  12.6964870  57.2468660  30.1749490   7.5921310  42.9623670
  30.0943540   6.6775920  42.6915380  29.7613910   8.0888380  42.2563380
  28.3067530   9.3700330  44.8432940  27.5309630   8.8900770  45.1331510
  28.9580460   8.6905980  44.6689100  22.3233360   9.6820140  45.7208700
  21.4918240   9.4268850  46.1205210  22.9314340   9.7530910  46.4566620
  32.3274960  13.7760520  43.6232070  31.8656490  13.0047760  43.9519240
  33.1400510  13.8026590  44.1284520  22.3034620  13.7160230  45.9166720
  22.6062660  12.8257970  45.7376940  23.0478210  14.2730450  45.6888970
  20.7325310   4.6422030  39.5051090  19.8442010   4.9838000  39.4030970
  21.0166500   4.4422350  38.6131920  18.6958320   7.2427680  45.3890790
  19.2674430   6.4749880  45.3894430  18.6959860   7.5416440  44.4797400
  28.5538270  16.0618530  43.2436060  27.9349710  16.5176030  42.6730500
  29.4090050  16.2169990  42.8425760  27.7476520  12.0457520  44.8503100
  27.6784800  11.1047460  44.6892230  28.5096380  12.1358930  45.4225670
  19.9383190   2.6512040  47.1759720  19.7586030   1.7537790  47.4562480
  19.5363270   3.1983910  47.8506670  28.7781690   4.8527900  45.0772030
  29.1546510   3.9799780  44.9645700  28.6801200   5.1886600  44.1862470
  22.9086700   3.2253530  40.5389470  23.0153450   4.1257260  40.8458230
  21.9979060   3.1771500  40.2484120  32.5605810   2.3478340  42.0100370
  33.3815430   1.8574910  42.0525850  32.5939890   2.9376000  42.7632210
  20.5569860   5.1472540  45.7842060  21.2379970   5.4110910  46.4029460
  20.2417910   4.3073410  46.1180070  24.7494430   6.1939900  44.8714650
  25.2572650   6.6920870  45.5119670  25.2807670   5.4175100  44.6954010
  36.8505360   4.3645090  48.5744000  36.1457530   4.7526800  48.0559110
  37.1163280   5.0595380  49.1764930  29.4201620  10.9457770  40.6367970
  28.8018890  11.4107220  40.0730690  29.9324870  11.6385250  41.0537480
  24.2833380  10.4733640  47.3151570  23.9502760  11.1002560  47.9572640
  24.4600060  10.9995520  46.5353240  32.7967290   4.2878720  44.7827910
  32.0922860   4.5763610  45.3631020  33.1579450   5.0978830  44.4227470
  22.7145860   2.5448420  47.1448520  23.0562670   3.3890470  46.8502390
  21.7761670   2.6932160  47.2613860  23.4952480  12.4414440  49.1300750
  24.1126480  13.1165520  48.8485200  22.6345600  12.8502420  49.0388250
  18.7884820  11.6314300  38.0107600  18.4112800  12.1201400  37.2792500
  19.0457890  12.3039580  38.6414130  34.4130070  13.9053850  47.0455390
  33.7293590  14.5752960  47.0372060  34.9524360  14.1034500  46.2800250
  35.8654210   3.7333510  45.1737120  34.9179120   3.7672490  45.3052550
  36.1904200   4.5472460  45.5586480  31.9488810  15.7497980  45.7600570
  31.9615970  15.3460270  44.8922830  31.3964030  16.5245270  45.6562000
  33.2434230  12.4714200  40.8490740  33.1330560  11.5288530  40.9740160
  33.2402480  12.8329840  41.7353500  31.3474250  10.6527820  47.0883180
  31.7643040  10.4387930  46.2536640  32.0714070  10.9100610  47.6591800
  28.7854510   8.0979520  40.2053230  27.8583790   8.0316900  40.4341700
  28.9379330   9.0359650  40.0908470  28.7723590   4.3696520  37.2020390
  27.8327260   4.5310480  37.2872850  29.0906850   5.0882200  36.6556380
  35.2936350   9.0515040  47.1799420  34.4654980   9.1208130  46.7049550
  35.8886830   9.6369350  46.7115250  32.8151800   9.6599820  40.7088480
  32.1964220   9.3219370  40.0614780  32.7976250   9.0159580  41.4167670
  32.2578360   5.8384360  48.1254290  31.8449540   6.6638070  48.3794280
  31.5254310   5.2529400  47.9330650  24.3911150   8.6244260  42.9872960
  23.9868150   7.9121510  42.4918860  24.4774270   8.2797500  43.8761000
  24.8592850  12.3111820  45.1512170  24.5621140  11.7057290  44.4719950
  25.8092670  12.3489130  45.0401530  23.1039770   5.3987470  46.7672000
  23.6554360   5.5082810  45.9925250  23.6183280   5.7725070  47.4827230
  32.9478460  15.8843690  48.8135270  32.4709020  16.6915880  48.6207880
  32.2640250  15.2322020  48.9661480  23.9511280  12.0493510  51.8019970
  23.0539810  12.2733480  52.0493370  23.9764150  12.1728450  50.8531370
  30.9916500   8.8986630  37.7161230  31.4309780   8.0609060  37.5699050
  31.7044920   9.5316030  37.8025370  22.7782500   8.9206830  50.3777340
  22.6390270   9.7929630  50.7464740  21.8963860   8.5779640  50.2325280
  29.1011880  13.8382700  41.6842470  29.5407790  14.5807030  41.2697860
  29.0398770  14.0809270  42.6081430  24.5762850  14.8628530  52.5862490
  24.5478280  15.2671480  51.7190920  24.4127820  13.9338890  52.4234090
  21.0915780   7.5189240  40.4879610  20.9713380   8.2451330  39.8760880
  20.7816670   6.7492150  40.0107520  36.5277670  15.6455630  53.8826660
  37.0037390  16.1238520  54.5615740  37.1484830  15.5773120  53.1572160
  18.7301150  10.6904380  46.2948250  18.8081570  10.8253150  45.3503970
  19.3442830   9.9820270  46.4876370  19.9748780  12.3904570  42.7054430
  19.5676860  12.5319160  41.8508030  20.8661790  12.1064730  42.5025640
  35.9310920  12.8368480  51.0426670  36.0573980  12.5980360  50.1243850
  35.9732300  12.0053020  51.5148750  29.7927660  16.5396480  49.6121480
  30.3072330  16.4504490  50.4143910  28.9496740  16.8856180  49.9049390
  31.7682060  16.8251820  39.0405480  31.6083200  16.5354760  39.9387310
  31.6028770  16.0491950  38.5050710  24.2470440  16.6050350  40.8177100
  24.0712920  15.6885890  40.6044900  23.3926180  16.9637640  41.0574900
  31.4708190  14.3339380  37.6003480  30.7773350  14.3316670  36.9405760
  32.2131050  13.9098700  37.1697650  31.0358120  15.9602090  41.6751970
  31.4915070  15.1791470  41.9890590  31.3750640  16.6708910  42.2193150
  35.7834930   4.8900940  52.0076410  35.1679200   5.3980610  51.4791870
  35.4631350   3.9899270  51.9502350  18.7860670  11.7318550  48.8342710
  18.9491710  11.2623910  48.0162080  19.2513120  11.2242110  49.4991550
  27.8449250   3.7292830  49.4738600  27.3828620   3.9375850  50.2858540
  27.4427360   2.9152180  49.1709270  32.8453760   4.9501780  50.6035260
  31.9947350   4.6507530  50.9244330  32.6855550   5.1943790  49.6919080
  29.9403470   6.4503530  52.7034050  30.2656880   5.6167280  52.3636280
  30.7283800   6.9732050  52.8512380  23.3493660   5.9857880  41.5984530
  23.1234580   5.7695050  42.5031150  22.5686190   6.4186340  41.2530500
  30.5791420   5.9921250  40.1975180  29.9800310   6.7157050  40.0138800
  31.1271030   5.9298030  39.4151630  25.7892870   6.8843460  52.2644800
  25.6936470   5.9438190  52.1145200  26.6324850   7.1058530  51.8692870
  29.1856290   4.6284790  42.2278460  29.5785860   4.9456990  41.4147150
  29.5473140   3.7496670  42.3422980  20.9203410   3.2957130  50.4178580
  20.5266800   4.1432340  50.6251360  20.2321810   2.6583500  50.6087220
  27.4948460   3.3792100  53.4875320  26.8046780   3.1864300  54.1221410
  28.2380760   3.6626740  54.0199620  18.4090690   5.1605710  35.6611380
  18.3265360   6.1036470  35.8026370  18.0573750   5.0180620  34.7823730
  29.7711430   7.2190540  46.3229240  29.0392550   7.7277350  46.6719340
  29.3735770   6.4020520  46.0218020  26.2088820   3.8944740  44.7281730
  26.2124880   3.4534690  43.8786270  27.1039940   4.2162070  44.8353550
  22.0591200   3.7771230  43.6875940  21.7191250   4.2546460  44.4442990
  21.2968520   3.3236350  43.3277040  26.2708970   4.8956820  37.7188490
  26.3921790   4.8543300  38.6674310  25.8857480   5.7580970  37.5635220
  30.2337340   2.6724220  45.7352180  30.2510080   3.1232870  46.5794030
  29.9852920   1.7729860  45.9485620  25.2830470   7.2057960  37.1171790
  24.7147370   6.7576210  36.4907700  25.9919470   7.5650740  36.5836940
  20.3599650  11.1069980  50.9938520  19.9754440  10.4663650  51.5921480
  20.6711840  11.8106100  51.5633250  26.5096790   7.9546520  46.4747140
  26.8766920   7.4805090  47.2208480  26.3201850   8.8288090  46.8155480
  19.3737280   2.6990210  42.6040610  19.0884200   2.3345880  43.4419230
  19.3116140   1.9670670  41.9903750  24.2996160   6.9955160  48.7931350
  23.9953230   7.8747140  49.0181710  25.2542620   7.0554950  48.8288790
  22.8277950  11.2016150  39.3898200  22.0540210  10.6613770  39.2296920
  23.5572580  10.6822760  39.0515960  33.5865930  10.1981510  45.1824590
  34.3065050  10.6936800  44.7920700  33.3847750   9.5199400  44.5378460
  28.9684730  10.2690570  51.0693590  28.9022040   9.3486240  50.8151180
  28.3389870  10.3666010  51.7838230  31.7624260   5.9639120  37.6216140
  32.6503880   6.2756350  37.4467480  31.7329350   5.0911370  37.2296720
  22.8715350  10.8696530  43.0277010  23.3894020  10.0664790  42.9733900
  22.4199370  10.8075670  43.8693840  27.7584850  12.1362810  38.3004310
  28.1000550  12.8805040  37.8047630  26.9297560  12.4493930  38.6629140
  20.3559890   7.8357900  49.9402710  19.9974830   8.5011750  50.5276050
  20.0614450   7.0041450  50.3115330  23.5573010   8.2942140  52.8242260
  23.2573150   8.4399320  51.9270080  24.3284250   7.7347430  52.7315650
  28.9001460  13.0911140  50.8197390  28.9146000  12.1592100  50.6016300
  28.1926560  13.1770900  51.4587160  34.0338530   7.2750960  37.0896000
  33.9502250   7.7065180  36.2392440  34.7532720   7.7349310  37.5222820
  35.1112670   9.7318480  50.1665970  34.3860860  10.3247260  49.9695360
  35.6388130   9.7242020  49.3679340  35.0625780  14.1293220  39.8178130
  34.4201940  13.4748840  40.0921850  34.6756440  14.5348310  39.0418800
  30.6412260  11.4578650  43.6649820  30.9936080  10.8606780  43.0051190
  29.7574590  11.1322880  43.8358070  26.7275540  12.2176340  41.0720230
  27.4146670  12.7645550  41.4527820  25.9407960  12.7617070  41.1069840
  18.8667940   7.8349160  36.5637310  19.7362790   8.1173960  36.8473230
  18.3758260   8.6485030  36.4486120  26.0302750   9.2222370  40.6845590
  26.4865530  10.0327620  40.9105780  25.6790960   8.9045510  41.5164080
  28.3335360  14.7328710  47.9137890  28.9777580  14.9388090  48.5911310
  28.6964800  13.9717110  47.4608740  29.6067440  12.7361060  46.6315340
  30.2489670  12.0354220  46.7447510  30.1316790  13.5159500  46.4512230
  33.4523160  13.0209680  36.3554480  33.2260740  12.3040120  36.9479120
  33.0619360  12.7722120  35.5176230  31.3805060  13.5355960  49.8351400
  31.7161300  14.1222650  50.5129320  30.4605400  13.4048670  50.0649190
  19.2339190  17.0476540  37.1298940  19.5936830  17.6465880  36.4756210
  19.0931530  17.5936430  37.9033970  33.0339410  10.9381620  38.0168640
  32.7461110  11.3994310  38.8046520  33.8291580  10.4779390  38.2852860
  19.2181050  15.3131400  51.6041340  19.3272170  14.3726140  51.4636730
  18.5661610  15.5786150  50.9555070  27.2093640  13.5847290  53.0039460
  26.8890510  12.8656530  53.5485150  26.5352000  14.2602360  53.0775520
  25.2507810  14.4307740  37.9472610  25.2417910  15.1637430  37.3317120
  24.3306170  14.1839320  38.0399570  20.8514450   9.6522630  38.6919370
  20.2442400  10.3921530  38.7014670  21.3263800   9.7421990  37.8657570
  30.4247240   3.8173450  48.3676260  30.7928060   2.9968660  48.6955830
  29.5645440   3.8775340  48.7831910  33.7909270   2.7730390  39.1763820
  33.1622430   2.8776060  38.4622050  33.2961190   2.9927170  39.9657700
  28.2367410  14.4935980  36.6097800  28.3379390  14.2899970  35.6799780
  27.3369150  14.2394260  36.8145580  25.7593300   5.0516340  40.5921700
  25.0509450   5.5202680  41.0335310  26.0437780   4.3938350  41.2266890
  27.3849230   6.4713040  48.5914230  27.8834480   6.9458860  49.2566080
  27.5272180   5.5476560  48.7984260  29.7908730   1.7767000  42.0317490
  29.6676510   1.7953130  41.0827000  30.7393290   1.8245940  42.1515890
  26.8785520  17.0122300  41.3045470  27.1327020  16.9743690  40.3824840
  25.9298000  16.8855630  41.2973720  23.9628320   3.3601420  37.9672410
  24.8118850   3.7971570  37.9012600  23.5959590   3.6721680  38.7944470
  34.5916090   2.6881000  49.4342620  34.0889690   3.4286400  49.7736430
  35.4072750   3.0765000  49.1179410  32.8838100   7.9314180  42.8803980
  31.9428240   7.9464410  43.0551670  33.1982170   7.1450140  43.3264280
  22.8619740   9.6133780  36.4407940  23.6283010   9.5015140  37.0033370
  22.9394430   8.9171750  35.7884710  21.5566500   7.0458850  37.1240830
  21.6370090   6.0986360  37.2358230  22.4486250   7.3765730  37.2301490
  34.8863680  15.1023030  44.5558240  35.0111100  15.9254200  45.0282050
  35.7529240  14.8913760  44.2082390  22.3581210  17.1954240  44.2275370
  23.0943690  16.6469700  44.4983940  22.7422130  18.0610250  44.0881360
  19.2426690  13.2627810  40.1016880  18.3166470  13.5048950  40.0922290
  19.7083120  14.0902070  39.9801630  21.3639490  16.3800310  53.4160950
  22.1652220  16.7012360  53.8296350  20.8491310  16.0195890  54.1380860
  25.4683520  16.3684550  36.0500940  26.2612130  16.6573380  35.5982730
  24.9487870  15.9376720  35.3713420  30.2004120  12.4880180  53.3636360
  29.5942280  12.5111780  52.6232110  29.8958230  11.7563220  53.9003610
  31.6304490  16.2160470  51.9745770  32.5826240  16.1318490  51.9246010
  31.4832710  16.8802180  52.6479560  34.5213690  15.5954680  37.4737680
  34.2355200  15.1819820  36.6591860  34.3233240  16.5242390  37.3538200
  19.0837300   8.8673770  52.3597000  19.5876320   8.2881050  52.9313230
  18.3444720   9.1514000  52.8973370  25.9860920  11.5887960  35.9143290
  25.8811560  10.9740310  36.6404670  25.8185140  11.0653850  35.1306300
  26.1375240  10.2744760  51.8932520  25.3720910  10.8429760  51.8087190
  26.3191200   9.9820970  51.0000750  29.2263650  10.6507990  36.5185280
  28.6773750  11.0977290  37.1628020  29.8482910  10.1457240  37.0422950
  33.2798590  12.0050090  52.4507540  34.0208060  12.3425850  51.9475000
  32.5171270  12.1742150  51.8977310  21.1160380   7.0103360  53.2547070
  21.1565720   6.7117230  54.1632300  21.9705880   7.4110970  53.0954590
  24.8938770   9.6098910  38.4150580  25.3155190   9.4438780  39.2581970
  25.0189610   8.7999140  37.9205720  23.0566190   5.5895460  51.2221560
  22.5262650   5.0986410  50.5944900  23.7254260   6.0179660  50.6879490
  27.4066410   8.6336520  35.6627680  27.9272070   7.9185540  35.2968830
  28.0534810   9.2722390  35.9628190  31.9544250  10.0564920  50.9862750
  32.3685270  10.2110000  51.8353170  31.0195250  10.1820140  51.1488530
  32.4266420   7.3961080  52.9901900  33.0087190   6.6413400  52.9022380
  32.6028190   7.9268520  52.2133380  23.5438490   2.5557830  51.3018850
  23.4495360   1.9378580  50.5769720  22.9635880   3.2824120  51.0748760
  26.7159480  10.0085400  48.9558680  27.1347590  10.8518130  48.7834920
  25.7968110  10.1457440  48.7265460  29.0523380   7.7401580  50.3396520
  29.1719590   7.1442720  51.0791360  29.9117380   7.7771270  49.9197820
  31.3911280   8.2938770  48.9159030  30.8646500   8.8181390  48.3124170
  31.7342620   8.9266160  49.5468760  23.7897670   5.6832140  35.3608740
  23.5886730   4.8199500  35.7222080  23.6189720   5.5965500  34.4230340
  24.5666900  16.3138410  50.0716410  24.0287990  17.0384470  49.7525110
  24.8200860  15.8368750  49.2813750  25.8192150   4.2822930  51.5972340
  26.4091840   3.9738780  52.2850160  25.0012390   3.8102680  51.7532240
  30.6385580   3.8988740  51.8305360  29.9501100   3.2370280  51.7655350
  31.3591600   3.4527010  52.2753820  22.5880470   2.7832760  35.3486620
  22.8906370   2.7900190  34.4405770  23.3275060   2.4330620  35.8454280
  27.4229110  17.5489620  50.3303060  27.3487810  18.4524760  50.6375430
  26.5207950  17.2301520  50.3025130  27.9714440  16.7148130  37.9529420
  28.8665230  17.0533100  37.9748180  28.0032070  15.9927540  37.3253700
  21.6110600  12.0875180  36.1816420  22.0485470  12.6304850  36.8374000
  22.0958330  11.2622130  36.1912760  18.8256400  14.8764210  43.6336680
  19.1559410  14.0085270  43.4015320  19.2547400  15.0822730  44.4641640
  23.4218320  13.2073220  41.2938650  23.1213860  13.0838190  42.1942560
  23.3155810  12.3481810  40.8854380  19.3146610  15.7434800  46.3718310
  18.8777600  15.9235600  47.2042460  19.8824290  16.5009420  46.2300030
  34.9508790  15.2451800  50.6595620  34.3510780  15.3044360  49.9159540
  35.0802690  14.3056780  50.7892470  36.1910240  12.9869620  35.9965330
  35.3603200  13.0546270  36.4672560  36.3682070  13.8773740  35.6932190
  35.6466700   9.7317100  38.4999530  36.4085610  10.3013750  38.6059220
  35.6621070   9.1644300  39.2707840  19.1471040   8.2555030  42.7307190
  18.4919880   7.9866670  42.0866890  19.9848990   8.1459510  42.2809170
  36.6526670  10.5867200  43.3441460  37.0235500   9.8034520  42.9377430
  37.2928600  11.2756300  43.1658760  33.6360430  11.9703780  48.7571780
  32.8220270  12.4000940  49.0197570  34.0434630  12.5822190  48.1440830
  35.6985870  10.0251470  35.6572050  35.9734710  10.9330350  35.5291270
  35.5096610   9.9614000  36.5934040  32.0961480   3.0496320  36.9525680
  32.5146360   2.8627300  36.1122340  31.7897540   2.1975370  37.2628610
  35.5951210   7.9620460  40.6501480  35.2194810   7.1948390  40.2182770
  34.8654330   8.3443160  41.1376410  20.1846970   8.6407600  47.2710530
  20.5520010   8.5535000  48.1506550  19.6157790   7.8774150  47.1717390
  34.9850830   7.1091980  50.2841000  34.7536920   6.8804730  49.3838950
  35.2455380   8.0291530  50.2385890  19.7362970   5.5516690  51.1768950
  18.8419020   5.5183450  51.5162660  20.2760520   5.7503480  51.9420200
  33.4238900   2.3348410  53.0620700  34.3009080   2.3431810  53.4454700
  33.4359740   1.5979250  52.4513050  18.3609120   5.4653960  38.6732520
  17.4573200   5.7284160  38.4984180  18.8449740   5.7365130  37.8932480
  34.8702170   6.1877950  43.9508720  35.3939650   5.6940600  43.3198890
  35.4561590   6.3228310  44.6956290  35.0491890   6.2717820  47.4728270
  34.0994600   6.2381360  47.5873260  35.2304900   7.1817930  47.2378040
  20.9036330   4.5219500  36.5826900  21.6128030   4.1002720  36.0974180
  20.1876270   4.5894730  35.9510250  34.3602140   5.4451300  39.8901130
  34.8561260   5.2122170  40.6750010  34.1618210   4.6063140  39.4738770
  35.7889300   4.0812250  42.4238810  35.6788580   3.9268290  43.3621080
  36.5496890   3.5533190  42.1814220  36.6779570   1.9120170  35.6644950
  37.6028880   1.7801350  35.4563240  36.6555360   1.9912990  36.6181400
  36.7518060   2.6830830  38.2901660  35.9569560   2.6175950  38.8194570
  36.9561340   3.6181470  38.2787010  33.6936480  16.7222380  42.2840050
  34.2895550  16.4006950  41.6074470  33.9514630  16.2494200  43.0753320
  21.5999050  13.1540290  52.4330680  21.5568680  12.7833200  53.3145140
  21.7310060  14.0917860  52.5732500  25.3005080  14.7099880  48.0340400
  25.0596440  14.9774440  47.1470920  26.2407720  14.8805610  48.0891260
  36.5609240  16.7294260  48.8351040  36.0667520  17.1263130  48.1178170
  35.9522530  16.1043470  49.2288320  21.4387080  16.1002540  49.5528460
  20.8447400  15.9687240  50.2918500  21.4310920  15.2640680  49.0870560
  34.2448690  17.3717680  46.1137780  33.7851660  18.1233490  45.7395800
  33.6161150  16.6524150  46.0552580  21.0699310  13.4660920  48.5036500
  20.3433370  12.8466210  48.4362450  21.1308460  13.8601530  47.6334580
  24.6744410  15.6805920  45.2885910  25.1909430  15.0693280  44.7634170
  25.3241790  16.1834700  45.7796920  27.4139910  16.5714410  46.1154890
  27.7017720  16.3168710  45.2387900  27.9263130  16.0191770  46.7060460
  19.3529310  16.7835310  41.7133260  19.1851350  16.1505990  42.4115150
  18.4863820  16.9894710  41.3627450  26.5171140   2.7291360  42.2067430
  25.7045650   2.3548250  41.8663310  27.0212780   1.9736440  42.5088620
  20.9592010  15.4768540  39.1583400  20.4339630  15.8576570  38.4545360
  20.8836590  16.1019310  39.8793110  27.4812270  17.4930510  53.4823090
  28.4079580  17.2574780  53.5259050  27.4662700  18.3202510  53.0009120
  35.7157330  17.0356080  40.4797340  35.8909520  16.3493820  39.8358260
  35.0178900  17.5603130  40.0874010  23.5584980  17.4250920  38.0332650
  24.2903800  17.1410200  37.4856540  23.8178650  17.1864200  38.9232030
  22.7199770  13.5415650  38.0378980  22.0908650  14.0100750  38.5864810
  22.8347600  12.6964870  38.4725170  34.0489830  16.7200370  53.3064130
  34.8415150  16.2249600  53.0990090  34.3422980  17.3990510  53.9139740
  30.1749490   7.5921310  24.1880180  30.0943540   6.6775920  23.9171890
  29.7613910   8.0888380  23.4819890  28.3067530   9.3700330  26.0689450
  27.5309630   8.8900770  26.3588020  28.9580460   8.6905980  25.8945610
  22.3233360   9.6820140  26.9465210  21.4918240   9.4268850  27.3461720
  22.9314340   9.7530910  27.6823130  32.3274960  13.7760520  24.8488580
  31.8656490  13.0047760  25.1775750  33.1400510  13.8026590  25.3541030
  22.3034620  13.7160230  27.1423230  22.6062660  12.8257970  26.9633450
  23.0478210  14.2730450  26.9145480  20.7325310   4.6422030  20.7307600
  19.8442010   4.9838000  20.6287480  21.0166500   4.4422350  19.8388430
  18.6958320   7.2427680  26.6147300  19.2674430   6.4749880  26.6150940
  18.6959860   7.5416440  25.7053910  28.5538270  16.0618530  24.4692570
  27.9349710  16.5176030  23.8987010  29.4090050  16.2169990  24.0682270
  27.7476520  12.0457520  26.0759610  27.6784800  11.1047460  25.9148740
  28.5096380  12.1358930  26.6482180  19.9383190   2.6512040  28.4016230
  19.7586030   1.7537790  28.6818990  19.5363270   3.1983910  29.0763180
  28.7781690   4.8527900  26.3028540  29.1546510   3.9799780  26.1902210
  28.6801200   5.1886600  25.4118980  22.9086700   3.2253530  21.7645980
  23.0153450   4.1257260  22.0714740  21.9979060   3.1771500  21.4740630
  32.5605810   2.3478340  23.2356880  33.3815430   1.8574910  23.2782360
  32.5939890   2.9376000  23.9888720  20.5569860   5.1472540  27.0098570
  21.2379970   5.4110910  27.6285970  20.2417910   4.3073410  27.3436580
  24.7494430   6.1939900  26.0971160  25.2572650   6.6920870  26.7376180
  25.2807670   5.4175100  25.9210520  36.8505360   4.3645090  29.8000510
  36.1457530   4.7526800  29.2815620  37.1163280   5.0595380  30.4021440
  29.4201620  10.9457770  21.8624480  28.8018890  11.4107220  21.2987200
  29.9324870  11.6385250  22.2793990  24.2833380  10.4733640  28.5408080
  23.9502760  11.1002560  29.1829150  24.4600060  10.9995520  27.7609750
  32.7967290   4.2878720  26.0084420  32.0922860   4.5763610  26.5887530
  33.1579450   5.0978830  25.6483980  22.7145860   2.5448420  28.3705030
  23.0562670   3.3890470  28.0758900  21.7761670   2.6932160  28.4870370
  23.4952480  12.4414440  30.3557260  24.1126480  13.1165520  30.0741710
  22.6345600  12.8502420  30.2644760  18.7884820  11.6314300  19.2364110
  18.4112800  12.1201400  18.5049010  19.0457890  12.3039580  19.8670640
  34.4130070  13.9053850  28.2711900  33.7293590  14.5752960  28.2628570
  34.9524360  14.1034500  27.5056760  35.8654210   3.7333510  26.3993630
  34.9179120   3.7672490  26.5309060  36.1904200   4.5472460  26.7842990
  31.9488810  15.7497980  26.9857080  31.9615970  15.3460270  26.1179340
  31.3964030  16.5245270  26.8818510  33.2434230  12.4714200  22.0747250
  33.1330560  11.5288530  22.1996670  33.2402480  12.8329840  22.9610010
  31.3474250  10.6527820  28.3139690  31.7643040  10.4387930  27.4793150
  32.0714070  10.9100610  28.8848310  28.7854510   8.0979520  21.4309740
  27.8583790   8.0316900  21.6598210  28.9379330   9.0359650  21.3164980
  28.7723590   4.3696520  18.4276900  27.8327260   4.5310480  18.5129360
  29.0906850   5.0882200  17.8812890  35.2936350   9.0515040  28.4055930
  34.4654980   9.1208130  27.9306060  35.8886830   9.6369350  27.9371760
  32.8151800   9.6599820  21.9344990  32.1964220   9.3219370  21.2871290
  32.7976250   9.0159580  22.6424180  32.2578360   5.8384360  29.3510800
  31.8449540   6.6638070  29.6050790  31.5254310   5.2529400  29.1587160
  24.3911150   8.6244260  24.2129470  23.9868150   7.9121510  23.7175370
  24.4774270   8.2797500  25.1017510  24.8592850  12.3111820  26.3768680
  24.5621140  11.7057290  25.6976460  25.8092670  12.3489130  26.2658040
  23.1039770   5.3987470  27.9928510  23.6554360   5.5082810  27.2181760
  23.6183280   5.7725070  28.7083740  32.9478460  15.8843690  30.0391780
  32.4709020  16.6915880  29.8464390  32.2640250  15.2322020  30.1917990
  23.9511280  12.0493510  33.0276480  23.0539810  12.2733480  33.2749880
  23.9764150  12.1728450  32.0787880  30.9916500   8.8986630  18.9417740
  31.4309780   8.0609060  18.7955560  31.7044920   9.5316030  19.0281880
  22.7782500   8.9206830  31.6033850  22.6390270   9.7929630  31.9721250
  21.8963860   8.5779640  31.4581790  29.1011880  13.8382700  22.9098980
  29.5407790  14.5807030  22.4954370  29.0398770  14.0809270  23.8337940
  24.5762850  14.8628530  33.8119000  24.5478280  15.2671480  32.9447430
  24.4127820  13.9338890  33.6490600  21.0915780   7.5189240  21.7136120
  20.9713380   8.2451330  21.1017390  20.7816670   6.7492150  21.2364030
  36.5277670  15.6455630  35.1083170  37.0037390  16.1238520  35.7872250
  37.1484830  15.5773120  34.3828670  18.7301150  10.6904380  27.5204760
  18.8081570  10.8253150  26.5760480  19.3442830   9.9820270  27.7132880
  19.9748780  12.3904570  23.9310940  19.5676860  12.5319160  23.0764540
  20.8661790  12.1064730  23.7282150  35.9310920  12.8368480  32.2683180
  36.0573980  12.5980360  31.3500360  35.9732300  12.0053020  32.7405260
  29.7927660  16.5396480  30.8377990  30.3072330  16.4504490  31.6400420
  28.9496740  16.8856180  31.1305900  31.7682060  16.8251820  20.2661990
  31.6083200  16.5354760  21.1643820  31.6028770  16.0491950  19.7307220
  24.2470440  16.6050350  22.0433610  24.0712920  15.6885890  21.8301410
  23.3926180  16.9637640  22.2831410  31.4708190  14.3339380  18.8259990
  30.7773350  14.3316670  18.1662270  32.2131050  13.9098700  18.3954160
  31.0358120  15.9602090  22.9008480  31.4915070  15.1791470  23.2147100
  31.3750640  16.6708910  23.4449660  35.7834930   4.8900940  33.2332920
  35.1679200   5.3980610  32.7048380  35.4631350   3.9899270  33.1758860
  18.7860670  11.7318550  30.0599220  18.9491710  11.2623910  29.2418590
  19.2513120  11.2242110  30.7248060  27.8449250   3.7292830  30.6995110
  27.3828620   3.9375850  31.5115050  27.4427360   2.9152180  30.3965780
  32.8453760   4.9501780  31.8291770  31.9947350   4.6507530  32.1500840
  32.6855550   5.1943790  30.9175590  29.9403470   6.4503530  33.9290560
  30.2656880   5.6167280  33.5892790  30.7283800   6.9732050  34.0768890
  23.3493660   5.9857880  22.8241040  23.1234580   5.7695050  23.7287660
  22.5686190   6.4186340  22.4787010  30.5791420   5.9921250  21.4231690
  29.9800310   6.7157050  21.2395310  31.1271030   5.9298030  20.6408140
  25.7892870   6.8843460  33.4901310  25.6936470   5.9438190  33.3401710
  26.6324850   7.1058530  33.0949380  29.1856290   4.6284790  23.4534970
  29.5785860   4.9456990  22.6403660  29.5473140   3.7496670  23.5679490
  20.9203410   3.2957130  31.6435090  20.5266800   4.1432340  31.8507870
  20.2321810   2.6583500  31.8343730  27.4948460   3.3792100  34.7131830
  26.8046780   3.1864300  35.3477920  28.2380760   3.6626740  35.2456130
  18.4090690   5.1605710  16.8867890  18.3265360   6.1036470  17.0282880
  18.0573750   5.0180620  16.0080240  29.7711430   7.2190540  27.5485750
  29.0392550   7.7277350  27.8975850  29.3735770   6.4020520  27.2474530
  26.2088820   3.8944740  25.9538240  26.2124880   3.4534690  25.1042780
  27.1039940   4.2162070  26.0610060  22.0591200   3.7771230  24.9132450
  21.7191250   4.2546460  25.6699500  21.2968520   3.3236350  24.5533550
  26.2708970   4.8956820  18.9445000  26.3921790   4.8543300  19.8930820
  25.8857480   5.7580970  18.7891730  30.2337340   2.6724220  26.9608690
  30.2510080   3.1232870  27.8050540  29.9852920   1.7729860  27.1742130
  25.2830470   7.2057960  18.3428300  24.7147370   6.7576210  17.7164210
  25.9919470   7.5650740  17.8093450  20.3599650  11.1069980  32.2195030
  19.9754440  10.4663650  32.8177990  20.6711840  11.8106100  32.7889760
  26.5096790   7.9546520  27.7003650  26.8766920   7.4805090  28.4464990
  26.3201850   8.8288090  28.0411990  19.3737280   2.6990210  23.8297120
  19.0884200   2.3345880  24.6675740  19.3116140   1.9670670  23.2160260
  24.2996160   6.9955160  30.0187860  23.9953230   7.8747140  30.2438220
  25.2542620   7.0554950  30.0545300  22.8277950  11.2016150  20.6154710
  22.0540210  10.6613770  20.4553430  23.5572580  10.6822760  20.2772470
  33.5865930  10.1981510  26.4081100  34.3065050  10.6936800  26.0177210
  33.3847750   9.5199400  25.7634970  28.9684730  10.2690570  32.2950100
  28.9022040   9.3486240  32.0407690  28.3389870  10.3666010  33.0094740
  31.7624260   5.9639120  18.8472650  32.6503880   6.2756350  18.6723990
  31.7329350   5.0911370  18.4553230  22.8715350  10.8696530  24.2533520
  23.3894020  10.0664790  24.1990410  22.4199370  10.8075670  25.0950350
  27.7584850  12.1362810  19.5260820  28.1000550  12.8805040  19.0304140
  26.9297560  12.4493930  19.8885650  20.3559890   7.8357900  31.1659220
  19.9974830   8.5011750  31.7532560  20.0614450   7.0041450  31.5371840
  23.5573010   8.2942140  34.0498770  23.2573150   8.4399320  33.1526590
  24.3284250   7.7347430  33.9572160  28.9001460  13.0911140  32.0453900
  28.9146000  12.1592100  31.8272810  28.1926560  13.1770900  32.6843670
  34.0338530   7.2750960  18.3152510  33.9502250   7.7065180  17.4648950
  34.7532720   7.7349310  18.7479330  35.1112670   9.7318480  31.3922480
  34.3860860  10.3247260  31.1951870  35.6388130   9.7242020  30.5935850
  35.0625780  14.1293220  21.0434640  34.4201940  13.4748840  21.3178360
  34.6756440  14.5348310  20.2675310  30.6412260  11.4578650  24.8906330
  30.9936080  10.8606780  24.2307700  29.7574590  11.1322880  25.0614580
  26.7275540  12.2176340  22.2976740  27.4146670  12.7645550  22.6784330
  25.9407960  12.7617070  22.3326350  18.8667940   7.8349160  17.7893820
  19.7362790   8.1173960  18.0729740  18.3758260   8.6485030  17.6742630
  26.0302750   9.2222370  21.9102100  26.4865530  10.0327620  22.1362290
  25.6790960   8.9045510  22.7420590  28.3335360  14.7328710  29.1394400
  28.9777580  14.9388090  29.8167820  28.6964800  13.9717110  28.6865250
  29.6067440  12.7361060  27.8571850  30.2489670  12.0354220  27.9704020
  30.1316790  13.5159500  27.6768740  33.4523160  13.0209680  17.5810990
  33.2260740  12.3040120  18.1735630  33.0619360  12.7722120  16.7432740
  31.3805060  13.5355960  31.0607910  31.7161300  14.1222650  31.7385830
  30.4605400  13.4048670  31.2905700  19.2339190  17.0476540  18.3555450
  19.5936830  17.6465880  17.7012720  19.0931530  17.5936430  19.1290480
  33.0339410  10.9381620  19.2425150  32.7461110  11.3994310  20.0303030
  33.8291580  10.4779390  19.5109370  19.2181050  15.3131400  32.8297850
  19.3272170  14.3726140  32.6893240  18.5661610  15.5786150  32.1811580
  27.2093640  13.5847290  34.2295970  26.8890510  12.8656530  34.7741660
  26.5352000  14.2602360  34.3032030  25.2507810  14.4307740  19.1729120
  25.2417910  15.1637430  18.5573630  24.3306170  14.1839320  19.2656080
  20.8514450   9.6522630  19.9175880  20.2442400  10.3921530  19.9271180
  21.3263800   9.7421990  19.0914080  30.4247240   3.8173450  29.5932770
  30.7928060   2.9968660  29.9212340  29.5645440   3.8775340  30.0088420
  33.7909270   2.7730390  20.4020330  33.1622430   2.8776060  19.6878560
  33.2961190   2.9927170  21.1914210  28.2367410  14.4935980  17.8354310
  28.3379390  14.2899970  16.9056290  27.3369150  14.2394260  18.0402090
  25.7593300   5.0516340  21.8178210  25.0509450   5.5202680  22.2591820
  26.0437780   4.3938350  22.4523400  27.3849230   6.4713040  29.8170740
  27.8834480   6.9458860  30.4822590  27.5272180   5.5476560  30.0240770
  29.7908730   1.7767000  23.2574000  29.6676510   1.7953130  22.3083510
  30.7393290   1.8245940  23.3772400  26.8785520  17.0122300  22.5301980
  27.1327020  16.9743690  21.6081350  25.9298000  16.8855630  22.5230230
  23.9628320   3.3601420  19.1928920  24.8118850   3.7971570  19.1269110
  23.5959590   3.6721680  20.0200980  34.5916090   2.6881000  30.6599130
  34.0889690   3.4286400  30.9992940  35.4072750   3.0765000  30.3435920
  32.8838100   7.9314180  24.1060490  31.9428240   7.9464410  24.2808180
  33.1982170   7.1450140  24.5520790  22.8619740   9.6133780  17.6664450
  23.6283010   9.5015140  18.2289880  22.9394430   8.9171750  17.0141220
  21.5566500   7.0458850  18.3497340  21.6370090   6.0986360  18.4614740
  22.4486250   7.3765730  18.4558000  34.8863680  15.1023030  25.7814750
  35.0111100  15.9254200  26.2538560  35.7529240  14.8913760  25.4338900
  22.3581210  17.1954240  25.4531880  23.0943690  16.6469700  25.7240450
  22.7422130  18.0610250  25.3137870  19.2426690  13.2627810  21.3273390
  18.3166470  13.5048950  21.3178800  19.7083120  14.0902070  21.2058140
  21.3639490  16.3800310  34.6417460  22.1652220  16.7012360  35.0552860
  20.8491310  16.0195890  35.3637370  25.4683520  16.3684550  17.2757450
  26.2612130  16.6573380  16.8239240  24.9487870  15.9376720  16.5969930
  30.2004120  12.4880180  34.5892870  29.5942280  12.5111780  33.8488620
  29.8958230  11.7563220  35.1260120  31.6304490  16.2160470  33.2002280
  32.5826240  16.1318490  33.1502520  31.4832710  16.8802180  33.8736070
  34.5213690  15.5954680  18.6994190  34.2355200  15.1819820  17.8848370
  34.3233240  16.5242390  18.5794710  19.0837300   8.8673770  33.5853510
  19.5876320   8.2881050  34.1569740  18.3444720   9.1514000  34.1229880
  25.9860920  11.5887960  17.1399800  25.8811560  10.9740310  17.8661180
  25.8185140  11.0653850  16.3562810  26.1375240  10.2744760  33.1189030
  25.3720910  10.8429760  33.0343700  26.3191200   9.9820970  32.2257260
  29.2263650  10.6507990  17.7441790  28.6773750  11.0977290  18.3884530
  29.8482910  10.1457240  18.2679460  33.2798590  12.0050090  33.6764050
  34.0208060  12.3425850  33.1731510  32.5171270  12.1742150  33.1233820
  21.1160380   7.0103360  34.4803580  21.1565720   6.7117230  35.3888810
  21.9705880   7.4110970  34.3211100  24.8938770   9.6098910  19.6407090
  25.3155190   9.4438780  20.4838480  25.0189610   8.7999140  19.1462230
  23.0566190   5.5895460  32.4478070  22.5262650   5.0986410  31.8201410
  23.7254260   6.0179660  31.9136000  27.4066410   8.6336520  16.8884190
  27.9272070   7.9185540  16.5225340  28.0534810   9.2722390  17.1884700
  31.9544250  10.0564920  32.2119260  32.3685270  10.2110000  33.0609680
  31.0195250  10.1820140  32.3745040  32.4266420   7.3961080  34.2158410
  33.0087190   6.6413400  34.1278890  32.6028190   7.9268520  33.4389890
  23.5438490   2.5557830  32.5275360  23.4495360   1.9378580  31.8026230
  22.9635880   3.2824120  32.3005270  26.7159480  10.0085400  30.1815190
  27.1347590  10.8518130  30.0091430  25.7968110  10.1457440  29.9521970
  29.0523380   7.7401580  31.5653030  29.1719590   7.1442720  32.3047870
  29.9117380   7.7771270  31.1454330  31.3911280   8.2938770  30.1415540
  30.8646500   8.8181390  29.5380680  31.7342620   8.9266160  30.7725270
  23.7897670   5.6832140  16.5865250  23.5886730   4.8199500  16.9478590
  23.6189720   5.5965500  15.6486850  24.5666900  16.3138410  31.2972920
  24.0287990  17.0384470  30.9781620  24.8200860  15.8368750  30.5070260
  25.8192150   4.2822930  32.8228850  26.4091840   3.9738780  33.5106670
  25.0012390   3.8102680  32.9788750  30.6385580   3.8988740  33.0561870
  29.9501100   3.2370280  32.9911860  31.3591600   3.4527010  33.5010330
  22.5880470   2.7832760  16.5743130  22.8906370   2.7900190  15.6662280
  23.3275060   2.4330620  17.0710790  27.4229110  17.5489620  31.5559570
  27.3487810  18.4524760  31.8631940  26.5207950  17.2301520  31.5281640
  27.9714440  16.7148130  19.1785930  28.8665230  17.0533100  19.2004690
  28.0032070  15.9927540  18.5510210  21.6110600  12.0875180  17.4072930
  22.0485470  12.6304850  18.0630510  22.0958330  11.2622130  17.4169270
  18.8256400  14.8764210  24.8593190  19.1559410  14.0085270  24.6271830
  19.2547400  15.0822730  25.6898150  23.4218320  13.2073220  22.5195160
  23.1213860  13.0838190  23.4199070  23.3155810  12.3481810  22.1110890
  19.3146610  15.7434800  27.5974820  18.8777600  15.9235600  28.4298970
  19.8824290  16.5009420  27.4556540  34.9508790  15.2451800  31.8852130
  34.3510780  15.3044360  31.1416050  35.0802690  14.3056780  32.0148980
  36.1910240  12.9869620  17.2221840  35.3603200  13.0546270  17.6929070
  36.3682070  13.8773740  16.9188700  35.6466700   9.7317100  19.7256040
  36.4085610  10.3013750  19.8315730  35.6621070   9.1644300  20.4964350
  19.1471040   8.2555030  23.9563700  18.4919880   7.9866670  23.3123400
  19.9848990   8.1459510  23.5065680  36.6526670  10.5867200  24.5697970
  37.0235500   9.8034520  24.1633940  37.2928600  11.2756300  24.3915270
  33.6360430  11.9703780  29.9828290  32.8220270  12.4000940  30.2454080
  34.0434630  12.5822190  29.3697340  35.6985870  10.0251470  16.8828560
  35.9734710  10.9330350  16.7547780  35.5096610   9.9614000  17.8190550
  32.0961480   3.0496320  18.1782190  32.5146360   2.8627300  17.3378850
  31.7897540   2.1975370  18.4885120  35.5951210   7.9620460  21.8757990
  35.2194810   7.1948390  21.4439280  34.8654330   8.3443160  22.3632920
  20.1846970   8.6407600  28.4967040  20.5520010   8.5535000  29.3763060
  19.6157790   7.8774150  28.3973900  34.9850830   7.1091980  31.5097510
  34.7536920   6.8804730  30.6095460  35.2455380   8.0291530  31.4642400
  19.7362970   5.5516690  32.4025460  18.8419020   5.5183450  32.7419170
  20.2760520   5.7503480  33.1676710  33.4238900   2.3348410  34.2877210
  34.3009080   2.3431810  34.6711210  33.4359740   1.5979250  33.6769560
  18.3609120   5.4653960  19.8989030  17.4573200   5.7284160  19.7240690
  18.8449740   5.7365130  19.1188990  34.8702170   6.1877950  25.1765230
  35.3939650   5.6940600  24.5455400  35.4561590   6.3228310  25.9212800
  35.0491890   6.2717820  28.6984780  34.0994600   6.2381360  28.8129770
  35.2304900   7.1817930  28.4634550  20.9036330   4.5219500  17.8083410
  21.6128030   4.1002720  17.3230690  20.1876270   4.5894730  17.1766760
  34.3602140   5.4451300  21.1157640  34.8561260   5.2122170  21.9006520
  34.1618210   4.6063140  20.6995280  35.7889300   4.0812250  23.6495320
  35.6788580   3.9268290  24.5877590  36.5496890   3.5533190  23.4070730
  36.6779570   1.9120170  16.8901460  37.6028880   1.7801350  16.6819750
  36.6555360   1.9912990  17.8437910  36.7518060   2.6830830  19.5158170
  35.9569560   2.6175950  20.0451080  36.9561340   3.6181470  19.5043520
  33.6936480  16.7222380  23.5096560  34.2895550  16.4006950  22.8330980
  33.9514630  16.2494200  24.3009830  21.5999050  13.1540290  33.6587190
  21.5568680  12.7833200  34.5401650  21.7310060  14.0917860  33.7989010
  25.3005080  14.7099880  29.2596910  25.0596440  14.9774440  28.3727430
  26.2407720  14.8805610  29.3147770  36.5609240  16.7294260  30.0607550
  36.0667520  17.1263130  29.3434680  35.9522530  16.1043470  30.4544830
  21.4387080  16.1002540  30.7784970  20.8447400  15.9687240  31.5175010
  21.4310920  15.2640680  30.3127070  34.2448690  17.3717680  27.3394290
  33.7851660  18.1233490  26.9652310  33.6161150  16.6524150  27.2809090
  21.0699310  13.4660920  29.7293010  20.3433370  12.8466210  29.6618960
  21.1308460  13.8601530  28.8591090  24.6744410  15.6805920  26.5142420
  25.1909430  15.0693280  25.9890680  25.3241790  16.1834700  27.0053430
  27.4139910  16.5714410  27.3411400  27.7017720  16.3168710  26.4644410
  27.9263130  16.0191770  27.9316970  19.3529310  16.7835310  22.9389770
  19.1851350  16.1505990  23.6371660  18.4863820  16.9894710  22.5883960
  26.5171140   2.7291360  23.4323940  25.7045650   2.3548250  23.0919820
  27.0212780   1.9736440  23.7345130  20.9592010  15.4768540  20.3839910
  20.4339630  15.8576570  19.6801870  20.8836590  16.1019310  21.1049620
  27.4812270  17.4930510  34.7079600  28.4079580  17.2574780  34.7515560
  27.4662700  18.3202510  34.2265630  35.7157330  17.0356080  21.7053850
  35.8909520  16.3493820  21.0614770  35.0178900  17.5603130  21.3130520
  23.5584980  17.4250920  19.2589160  24.2903800  17.1410200  18.7113050
  23.8178650  17.1864200  20.1488540  22.7199770  13.5415650  19.2635490
  22.0908650  14.0100750  19.8121320  22.8347600  12.6964870  19.6981680
  34.0489830  16.7200370  34.5320640  34.8415150  16.2249600  34.3246600
  34.3422980  17.3990510  35.1396250  30.1749490   7.5921310   5.4136690
  30.0943540   6.6775920   5.1428400  29.7613910   8.0888380   4.7076400
  28.3067530   9.3700330   7.2945960  27.5309630   8.8900770   7.5844530
  28.9580460   8.6905980   7.1202120  22.3233360   9.6820140   8.1721720
  21.4918240   9.4268850   8.5718230  22.9314340   9.7530910   8.9079640
  32.3274960  13.7760520   6.0745090  31.8656490  13.0047760   6.4032260
  33.1400510  13.8026590   6.5797540  22.3034620  13.7160230   8.3679740
  22.6062660  12.8257970   8.1889960  23.0478210  14.2730450   8.1401990
  18.6958320   7.2427680   7.8403810  19.2674430   6.4749880   7.8407450
  18.6959860   7.5416440   6.9310420  28.5538270  16.0618530   5.6949080
  27.9349710  16.5176030   5.1243520  29.4090050  16.2169990   5.2938780
  27.7476520  12.0457520   7.3016120  27.6784800  11.1047460   7.1405250
  28.5096380  12.1358930   7.8738690  19.9383190   2.6512040   9.6272740
  19.7586030   1.7537790   9.9075500  19.5363270   3.1983910  10.3019690
  28.7781690   4.8527900   7.5285050  29.1546510   3.9799780   7.4158720
  28.6801200   5.1886600   6.6375490  22.9086700   3.2253530   2.9902490
  23.0153450   4.1257260   3.2971250  21.9979060   3.1771500   2.6997140
  32.5605810   2.3478340   4.4613390  33.3815430   1.8574910   4.5038870
  32.5939890   2.9376000   5.2145230  20.5569860   5.1472540   8.2355080
  21.2379970   5.4110910   8.8542480  20.2417910   4.3073410   8.5693090
  24.7494430   6.1939900   7.3227670  25.2572650   6.6920870   7.9632690
  25.2807670   5.4175100   7.1467030  36.8505360   4.3645090  11.0257020
  36.1457530   4.7526800  10.5072130  37.1163280   5.0595380  11.6277950
  29.4201620  10.9457770   3.0880990  28.8018890  11.4107220   2.5243710
  29.9324870  11.6385250   3.5050500  24.2833380  10.4733640   9.7664590
  23.9502760  11.1002560  10.4085660  24.4600060  10.9995520   8.9866260
  32.7967290   4.2878720   7.2340930  32.0922860   4.5763610   7.8144040
  33.1579450   5.0978830   6.8740490  22.7145860   2.5448420   9.5961540
  23.0562670   3.3890470   9.3015410  21.7761670   2.6932160   9.7126880
  23.4952480  12.4414440  11.5813770  24.1126480  13.1165520  11.2998220
  22.6345600  12.8502420  11.4901270  34.4130070  13.9053850   9.4968410
  33.7293590  14.5752960   9.4885080  34.9524360  14.1034500   8.7313270
  35.8654210   3.7333510   7.6250140  34.9179120   3.7672490   7.7565570
  36.1904200   4.5472460   8.0099500  31.9488810  15.7497980   8.2113590
  31.9615970  15.3460270   7.3435850  31.3964030  16.5245270   8.1075020
  33.2434230  12.4714200   3.3003760  33.1330560  11.5288530   3.4253180
  33.2402480  12.8329840   4.1866520  31.3474250  10.6527820   9.5396200
  31.7643040  10.4387930   8.7049660  32.0714070  10.9100610  10.1104820
  28.7854510   8.0979520   2.6566250  27.8583790   8.0316900   2.8854720
  28.9379330   9.0359650   2.5421490  35.2936350   9.0515040   9.6312440
  34.4654980   9.1208130   9.1562570  35.8886830   9.6369350   9.1628270
  32.8151800   9.6599820   3.1601500  32.1964220   9.3219370   2.5127800
  32.7976250   9.0159580   3.8680690  32.2578360   5.8384360  10.5767310
  31.8449540   6.6638070  10.8307300  31.5254310   5.2529400  10.3843670
  24.3911150   8.6244260   5.4385980  23.9868150   7.9121510   4.9431880
  24.4774270   8.2797500   6.3274020  24.8592850  12.3111820   7.6025190
  24.5621140  11.7057290   6.9232970  25.8092670  12.3489130   7.4914550
  23.1039770   5.3987470   9.2185020  23.6554360   5.5082810   8.4438270
  23.6183280   5.7725070   9.9340250  32.9478460  15.8843690  11.2648290
  32.4709020  16.6915880  11.0720900  32.2640250  15.2322020  11.4174500
  23.9511280  12.0493510  14.2532990  23.0539810  12.2733480  14.5006390
  23.9764150  12.1728450  13.3044390  22.7782500   8.9206830  12.8290360
  22.6390270   9.7929630  13.1977760  21.8963860   8.5779640  12.6838300
  29.1011880  13.8382700   4.1355490  29.5407790  14.5807030   3.7210880
  29.0398770  14.0809270   5.0594450  24.5762850  14.8628530  15.0375510
  24.5478280  15.2671480  14.1703940  24.4127820  13.9338890  14.8747110
  21.0915780   7.5189240   2.9392630  20.9713380   8.2451330   2.3273900
  20.7816670   6.7492150   2.4620540  36.5277670  15.6455630  16.3339680
  37.0037390  16.1238520  17.0128760  37.1484830  15.5773120  15.6085180
  18.7301150  10.6904380   8.7461270  18.8081570  10.8253150   7.8016990
  19.3442830   9.9820270   8.9389390  19.9748780  12.3904570   5.1567450
  19.5676860  12.5319160   4.3021050  20.8661790  12.1064730   4.9538660
  35.9310920  12.8368480  13.4939690  36.0573980  12.5980360  12.5756870
  35.9732300  12.0053020  13.9661770  29.7927660  16.5396480  12.0634500
  30.3072330  16.4504490  12.8656930  28.9496740  16.8856180  12.3562410
  24.2470440  16.6050350   3.2690120  24.0712920  15.6885890   3.0557920
  23.3926180  16.9637640   3.5087920  31.0358120  15.9602090   4.1264990
  31.4915070  15.1791470   4.4403610  31.3750640  16.6708910   4.6706170
  35.7834930   4.8900940  14.4589430  35.1679200   5.3980610  13.9304890
  35.4631350   3.9899270  14.4015370  18.7860670  11.7318550  11.2855730
  18.9491710  11.2623910  10.4675100  19.2513120  11.2242110  11.9504570
  27.8449250   3.7292830  11.9251620  27.3828620   3.9375850  12.7371560
  27.4427360   2.9152180  11.6222290  32.8453760   4.9501780  13.0548280
  31.9947350   4.6507530  13.3757350  32.6855550   5.1943790  12.1432100
  29.9403470   6.4503530  15.1547070  30.2656880   5.6167280  14.8149300
  30.7283800   6.9732050  15.3025400  23.3493660   5.9857880   4.0497550
  23.1234580   5.7695050   4.9544170  22.5686190   6.4186340   3.7043520
  30.5791420   5.9921250   2.6488200  29.9800310   6.7157050   2.4651820
  31.1271030   5.9298030   1.8664650  25.7892870   6.8843460  14.7157820
  25.6936470   5.9438190  14.5658220  26.6324850   7.1058530  14.3205890
  29.1856290   4.6284790   4.6791480  29.5785860   4.9456990   3.8660170
  29.5473140   3.7496670   4.7936000  20.9203410   3.2957130  12.8691600
  20.5266800   4.1432340  13.0764380  20.2321810   2.6583500  13.0600240
  27.4948460   3.3792100  15.9388340  26.8046780   3.1864300  16.5734430
  28.2380760   3.6626740  16.4712640  29.7711430   7.2190540   8.7742260
  29.0392550   7.7277350   9.1232360  29.3735770   6.4020520   8.4731040
  26.2088820   3.8944740   7.1794750  26.2124880   3.4534690   6.3299290
  27.1039940   4.2162070   7.2866570  22.0591200   3.7771230   6.1388960
  21.7191250   4.2546460   6.8956010  21.2968520   3.3236350   5.7790060
  30.2337340   2.6724220   8.1865200  30.2510080   3.1232870   9.0307050
  29.9852920   1.7729860   8.3998640  20.3599650  11.1069980  13.4451540
  19.9754440  10.4663650  14.0434500  20.6711840  11.8106100  14.0146270
  26.5096790   7.9546520   8.9260160  26.8766920   7.4805090   9.6721500
  26.3201850   8.8288090   9.2668500  19.3737280   2.6990210   5.0553630
  19.0884200   2.3345880   5.8932250  19.3116140   1.9670670   4.4416770
  24.2996160   6.9955160  11.2444370  23.9953230   7.8747140  11.4694730
  25.2542620   7.0554950  11.2801810  22.8277950  11.2016150   1.8411220
  22.0540210  10.6613770   1.6809940  23.5572580  10.6822760   1.5028980
  33.5865930  10.1981510   7.6337610  34.3065050  10.6936800   7.2433720
  33.3847750   9.5199400   6.9891480  28.9684730  10.2690570  13.5206610
  28.9022040   9.3486240  13.2664200  28.3389870  10.3666010  14.2351250
  22.8715350  10.8696530   5.4790030  23.3894020  10.0664790   5.4246920
  22.4199370  10.8075670   6.3206860  20.3559890   7.8357900  12.3915730
  19.9974830   8.5011750  12.9789070  20.0614450   7.0041450  12.7628350
  23.5573010   8.2942140  15.2755280  23.2573150   8.4399320  14.3783100
  24.3284250   7.7347430  15.1828670  28.9001460  13.0911140  13.2710410
  28.9146000  12.1592100  13.0529320  28.1926560  13.1770900  13.9100180
  35.1112670   9.7318480  12.6178990  34.3860860  10.3247260  12.4208380
  35.6388130   9.7242020  11.8192360  35.0625780  14.1293220   2.2691150
  34.4201940  13.4748840   2.5434870  34.6756440  14.5348310   1.4931820
  30.6412260  11.4578650   6.1162840  30.9936080  10.8606780   5.4564210
  29.7574590  11.1322880   6.2871090  26.7275540  12.2176340   3.5233250
  27.4146670  12.7645550   3.9040840  25.9407960  12.7617070   3.5582860
  26.0302750   9.2222370   3.1358610  26.4865530  10.0327620   3.3618800
  25.6790960   8.9045510   3.9677100  28.3335360  14.7328710  10.3650910
  28.9777580  14.9388090  11.0424330  28.6964800  13.9717110   9.9121760
  29.6067440  12.7361060   9.0828360  30.2489670  12.0354220   9.1960530
  30.1316790  13.5159500   8.9025250  31.3805060  13.5355960  12.2864420
  31.7161300  14.1222650  12.9642340  30.4605400  13.4048670  12.5162210
  19.2181050  15.3131400  14.0554360  19.3272170  14.3726140  13.9149750
  18.5661610  15.5786150  13.4068090  27.2093640  13.5847290  15.4552480
  26.8890510  12.8656530  15.9998170  26.5352000  14.2602360  15.5288540
  30.4247240   3.8173450  10.8189280  30.7928060   2.9968660  11.1468850
  29.5645440   3.8775340  11.2344930  25.7593300   5.0516340   3.0434720
  25.0509450   5.5202680   3.4848330  26.0437780   4.3938350   3.6779910
  27.3849230   6.4713040  11.0427250  27.8834480   6.9458860  11.7079100
  27.5272180   5.5476560  11.2497280  29.7908730   1.7767000   4.4830510
  29.6676510   1.7953130   3.5340020  30.7393290   1.8245940   4.6028910
  26.8785520  17.0122300   3.7558490  27.1327020  16.9743690   2.8337860
  25.9298000  16.8855630   3.7486740  34.5916090   2.6881000  11.8855640
  34.0889690   3.4286400  12.2249450  35.4072750   3.0765000  11.5692430
  32.8838100   7.9314180   5.3317000  31.9428240   7.9464410   5.5064690
  33.1982170   7.1450140   5.7777300  34.8863680  15.1023030   7.0071260
  35.0111100  15.9254200   7.4795070  35.7529240  14.8913760   6.6595410
  22.3581210  17.1954240   6.6788390  23.0943690  16.6469700   6.9496960
  22.7422130  18.0610250   6.5394380  19.2426690  13.2627810   2.5529900
  18.3166470  13.5048950   2.5435310  19.7083120  14.0902070   2.4314650
  21.3639490  16.3800310  15.8673970  22.1652220  16.7012360  16.2809370
  20.8491310  16.0195890  16.5893880  30.2004120  12.4880180  15.8149380
  29.5942280  12.5111780  15.0745130  29.8958230  11.7563220  16.3516630
  31.6304490  16.2160470  14.4258790  32.5826240  16.1318490  14.3759030
  31.4832710  16.8802180  15.0992580  19.0837300   8.8673770  14.8110020
  19.5876320   8.2881050  15.3826250  18.3444720   9.1514000  15.3486390
  26.1375240  10.2744760  14.3445540  25.3720910  10.8429760  14.2600210
  26.3191200   9.9820970  13.4513770  33.2798590  12.0050090  14.9020560
  34.0208060  12.3425850  14.3988020  32.5171270  12.1742150  14.3490330
  21.1160380   7.0103360  15.7060090  21.1565720   6.7117230  16.6145320
  21.9705880   7.4110970  15.5467610  23.0566190   5.5895460  13.6734580
  22.5262650   5.0986410  13.0457920  23.7254260   6.0179660  13.1392510
  31.9544250  10.0564920  13.4375770  32.3685270  10.2110000  14.2866190
  31.0195250  10.1820140  13.6001550  32.4266420   7.3961080  15.4414920
  33.0087190   6.6413400  15.3535400  32.6028190   7.9268520  14.6646400
  23.5438490   2.5557830  13.7531870  23.4495360   1.9378580  13.0282740
  22.9635880   3.2824120  13.5261780  26.7159480  10.0085400  11.4071700
  27.1347590  10.8518130  11.2347940  25.7968110  10.1457440  11.1778480
  29.0523380   7.7401580  12.7909540  29.1719590   7.1442720  13.5304380
  29.9117380   7.7771270  12.3710840  31.3911280   8.2938770  11.3672050
  30.8646500   8.8181390  10.7637190  31.7342620   8.9266160  11.9981780
  24.5666900  16.3138410  12.5229430  24.0287990  17.0384470  12.2038130
  24.8200860  15.8368750  11.7326770  25.8192150   4.2822930  14.0485360
  26.4091840   3.9738780  14.7363180  25.0012390   3.8102680  14.2045260
  30.6385580   3.8988740  14.2818380  29.9501100   3.2370280  14.2168370
  31.3591600   3.4527010  14.7266840  27.4229110  17.5489620  12.7816080
  27.3487810  18.4524760  13.0888450  26.5207950  17.2301520  12.7538150
  18.8256400  14.8764210   6.0849700  19.1559410  14.0085270   5.8528340
  19.2547400  15.0822730   6.9154660  23.4218320  13.2073220   3.7451670
  23.1213860  13.0838190   4.6455580  23.3155810  12.3481810   3.3367400
  19.3146610  15.7434800   8.8231330  18.8777600  15.9235600   9.6555480
  19.8824290  16.5009420   8.6813050  34.9508790  15.2451800  13.1108640
  34.3510780  15.3044360  12.3672560  35.0802690  14.3056780  13.2405490
  19.1471040   8.2555030   5.1820210  18.4919880   7.9866670   4.5379910
  19.9848990   8.1459510   4.7322190  36.6526670  10.5867200   5.7954480
  37.0235500   9.8034520   5.3890450  37.2928600  11.2756300   5.6171780
  33.6360430  11.9703780  11.2084800  32.8220270  12.4000940  11.4710590
  34.0434630  12.5822190  10.5953850  35.5951210   7.9620460   3.1014500
  35.2194810   7.1948390   2.6695790  34.8654330   8.3443160   3.5889430
  20.1846970   8.6407600   9.7223550  20.5520010   8.5535000  10.6019570
  19.6157790   7.8774150   9.6230410  34.9850830   7.1091980  12.7354020
  34.7536920   6.8804730  11.8351970  35.2455380   8.0291530  12.6898910
  19.7362970   5.5516690  13.6281970  18.8419020   5.5183450  13.9675680
  20.2760520   5.7503480  14.3933220  33.4238900   2.3348410  15.5133720
  34.3009080   2.3431810  15.8967720  33.4359740   1.5979250  14.9026070
  34.8702170   6.1877950   6.4021740  35.3939650   5.6940600   5.7711910
  35.4561590   6.3228310   7.1469310  35.0491890   6.2717820   9.9241290
  34.0994600   6.2381360  10.0386280  35.2304900   7.1817930   9.6891060
  34.3602140   5.4451300   2.3414150  34.8561260   5.2122170   3.1263030
  34.1618210   4.6063140   1.9251790  35.7889300   4.0812250   4.8751830
  35.6788580   3.9268290   5.8134100  36.5496890   3.5533190   4.6327240
  33.6936480  16.7222380   4.7353070  34.2895550  16.4006950   4.0587490
  33.9514630  16.2494200   5.5266340  21.5999050  13.1540290  14.8843700
  21.5568680  12.7833200  15.7658160  21.7310060  14.0917860  15.0245520
  25.3005080  14.7099880  10.4853420  25.0596440  14.9774440   9.5983940
  26.2407720  14.8805610  10.5404280  36.5609240  16.7294260  11.2864060
  36.0667520  17.1263130  10.5691190  35.9522530  16.1043470  11.6801340
  21.4387080  16.1002540  12.0041480  20.8447400  15.9687240  12.7431520
  21.4310920  15.2640680  11.5383580  34.2448690  17.3717680   8.5650800
  33.7851660  18.1233490   8.1908820  33.6161150  16.6524150   8.5065600
  21.0699310  13.4660920  10.9549520  20.3433370  12.8466210  10.8875470
  21.1308460  13.8601530  10.0847600  24.6744410  15.6805920   7.7398930
  25.1909430  15.0693280   7.2147190  25.3241790  16.1834700   8.2309940
  27.4139910  16.5714410   8.5667910  27.7017720  16.3168710   7.6900920
  27.9263130  16.0191770   9.1573480  19.3529310  16.7835310   4.1646280
  19.1851350  16.1505990   4.8628170  18.4863820  16.9894710   3.8140470
  26.5171140   2.7291360   4.6580450  25.7045650   2.3548250   4.3176330
  27.0212780   1.9736440   4.9601640  27.4812270  17.4930510  15.9336110
  28.4079580  17.2574780  15.9772070  27.4662700  18.3202510  15.4522140
  35.7157330  17.0356080   2.9310360  35.8909520  16.3493820   2.2871280
  35.0178900  17.5603130   2.5387030  34.0489830  16.7200370  15.7577150
  34.8415150  16.2249600  15.5503110  34.3422980  17.3990510  16.3652760
  11.4006000  63.9151780  61.7367160  11.3200050  63.0006390  61.4658870
  10.9870420  64.4118850  61.0306870   9.5324040  65.6930800  63.6176430
   8.7566140  65.2131240  63.9075000  10.1836970  65.0136450  63.4432590
   3.5489870  66.0050610  64.4952190   2.7174750  65.7499320  64.8948700
   4.1570850  66.0761380  65.2310110  13.5531470  70.0990990  62.3975560
  13.0913000  69.3278230  62.7262730  14.3657020  70.1257060  62.9028010
   3.5291130  70.0390700  64.6910210   3.8319170  69.1488440  64.5120430
   4.2734720  70.5960920  64.4632460   8.9733030  68.3687990  63.6246590
   8.9041310  67.4277930  63.4635720   9.7352890  68.4589400  64.1969160
  10.0038200  61.1758370  63.8515520  10.3803020  60.3030250  63.7389190
   9.9057710  61.5117070  62.9605960   4.1343210  59.5484000  59.3132960
   4.2409960  60.4487730  59.6201720   3.2235570  59.5001970  59.0227610
  13.7862320  58.6708810  60.7843860  14.6071940  58.1805380  60.8269340
  13.8196400  59.2606470  61.5375700   5.9750940  62.5170370  63.6458140
   6.4829160  63.0151340  64.2863160   6.5064180  61.7405570  63.4697500
  18.0761870  60.6875560  67.3487490  17.3714040  61.0757270  66.8302600
  18.3419790  61.3825850  67.9508420   4.2587040  57.1568930  67.9121560
   4.2605480  57.6741320  67.1067460   3.4291350  56.6799110  67.8891490
  10.6458130  67.2688240  59.4111460  10.0275400  67.7337690  58.8474180
  11.1581380  67.9615720  59.8280970   5.5089890  66.7964110  66.0895060
   5.1759270  67.4233030  66.7316130   5.6856570  67.3225990  65.3096730
  14.0223800  60.6109190  63.5571400  13.3179370  60.8994080  64.1374510
  14.3835960  61.4209300  63.1970960   3.9402370  58.8678890  65.9192010
   4.2819180  59.7120940  65.6245880   3.0018180  59.0162630  66.0357350
   4.7208990  68.7644910  67.9044240   5.3382990  69.4395990  67.6228690
   3.8602110  69.1732890  67.8131740  15.6386580  70.2284320  65.8198880
  14.9550100  70.8983430  65.8115550  16.1780870  70.4264970  65.0543740
  17.0910720  60.0563980  63.9480610  16.1435630  60.0902960  64.0796040
  17.4160710  60.8702930  64.3329970   7.6230260  56.3561160  62.2436600
   7.9305240  55.8008050  61.5272100   6.6930960  56.4905620  62.0609590
  14.4690740  68.7944670  59.6234230  14.3587070  67.8519000  59.7483650
  14.4658990  69.1560310  60.5096990  12.5730760  66.9758290  65.8626670
  12.9899550  66.7618400  65.0280130  13.2970580  67.2331080  66.4335290
  10.0111020  64.4209990  58.9796720   9.0840300  64.3547370  59.2085190
  10.1635840  65.3590120  58.8651960   9.9980100  60.6926990  55.9763880
   9.0583770  60.8540950  56.0616340  10.3163360  61.4112670  55.4299870
  16.5192860  65.3745510  65.9542910  15.6911490  65.4438600  65.4793040
  17.1143340  65.9599820  65.4858740  14.0408310  65.9830290  59.4831970
  13.4220730  65.6449840  58.8358270  14.0232760  65.3390050  60.1911160
  13.4834870  62.1614830  66.8997780  13.0706050  62.9868540  67.1537770
  12.7510820  61.5759870  66.7074140   5.6167660  64.9474730  61.7616450
   5.2124660  64.2351980  61.2662350   5.7030780  64.6027970  62.6504490
   6.0849360  68.6342290  63.9255660   5.7877650  68.0287760  63.2463440
   7.0349180  68.6719600  63.8145020   4.3296280  61.7217940  65.5415490
   4.8810870  61.8313280  64.7668740   4.8439790  62.0955540  66.2570720
  12.2173010  65.2217100  56.4904720  12.6566290  64.3839530  56.3442540
  12.9301430  65.8546500  56.5768860  10.3268390  70.1613170  60.4585960
  10.7664300  70.9037500  60.0441350  10.2655280  70.4039740  61.3824920
  15.7990150  56.4759910  54.8045760  15.4862810  56.5686740  55.7044830
  16.5602620  57.0540940  54.7543190   2.3172290  63.8419710  59.2623100
   2.1969890  64.5681800  58.6504370   2.0073180  63.0722620  58.7851010
  12.6964700  70.6569850  56.3746970  12.0029860  70.6547140  55.7149250
  13.4387560  70.2329170  55.9441140   4.7835950  57.1854780  62.6446770
   4.3404100  57.9664320  62.3131290   5.3420940  57.5084670  63.3517710
   9.0705760  60.0523300  68.2482090   8.6085130  60.2606320  69.0602030
   8.6683870  59.2382650  67.9452760   7.8994770  56.8065480  57.5252600
   7.2748950  56.8025350  58.2505910   7.8124890  55.9396440  57.1288570
   6.8211850  57.7302110  64.5036370   7.1184180  58.6364940  64.4228390
   7.3697410  57.2420890  63.8895940   4.5750170  62.3088350  60.3728020
   4.3491090  62.0925520  61.2774640   3.7942700  62.7416810  60.0273990
  11.8047930  62.3151720  58.9718670  11.2056820  63.0387520  58.7882290
  12.3527540  62.2528500  58.1895120  10.4112800  60.9515260  61.0021950
  10.8042370  61.2687460  60.1890640  10.7729650  60.0727140  61.1166470
  10.9967940  63.5421010  65.0972730  10.2649060  64.0507820  65.4462830
  10.5992280  62.7250990  64.7961510   7.4345330  60.2175210  63.5025220
   7.4381390  59.7765160  62.6529760   8.3296450  60.5392540  63.6097040
   3.2847710  60.1001700  62.4619430   2.9447760  60.5776930  63.2186480
   2.5225030  59.6466820  62.1020530   7.4965480  61.2187290  56.4931980
   7.6178300  61.1773770  57.4417800   7.1113990  62.0811440  56.3378710
  11.4593850  58.9954690  64.5095670  11.4766590  59.4463340  65.3537520
  11.2109430  58.0960330  64.7229110   6.5086980  63.5288430  55.8915280
   5.9403880  63.0806680  55.2651190   7.2175980  63.8881210  55.3580430
   7.7353300  64.2776990  65.2490630   8.1023430  63.8035560  65.9951970
   7.5458360  65.1518560  65.5898970   5.5252670  63.3185630  67.5674840
   5.2209740  64.1977610  67.7925200   6.4799130  63.3785420  67.6032280
   4.0534460  67.5246620  58.1641690   3.2796720  66.9844240  58.0040410
   4.7829090  67.0053230  57.8259450  14.8122440  66.5211980  63.9568080
  15.5321560  67.0167270  63.5664190  14.6104260  65.8429870  63.3121950
  10.2732380  57.9149940  58.0997470   9.4596990  57.4163110  58.0242780
  10.0794330  58.7548190  57.6833820  12.9880770  62.2869590  56.3959630
  13.8760390  62.5986820  56.2210970  12.9585860  61.4141840  56.0040210
   4.0971860  67.1927000  61.8020500   4.6150530  66.3895260  61.7477390
   3.6455880  67.1306140  62.6437330   8.9841360  68.4593280  57.0747800
   9.3257060  69.2035510  56.5791120   8.1554070  68.7724400  57.4372630
  15.2595040  63.5981430  55.8639490  15.1758760  64.0295650  55.0135930
  15.9789230  64.0579780  56.2966310  16.3369180  66.0548950  68.9409460
  15.6117370  66.6477730  68.7438850  16.8644640  66.0472490  68.1422830
  16.2882290  70.4523690  58.5921620  15.6458450  69.7979310  58.8665340
  15.9012950  70.8578780  57.8162290  11.8668770  67.7809120  62.4393310
  12.2192590  67.1837250  61.7794680  10.9831100  67.4553350  62.6101560
   7.9532050  68.5406810  59.8463720   8.6403180  69.0876020  60.2271310
   7.1664470  69.0847540  59.8813330   7.2559260  65.5452840  59.4589080
   7.7122040  66.3558090  59.6849270   6.9047470  65.2275980  60.2907570
   9.5591870  71.0559180  66.6881380  10.2034090  71.2618560  67.3654800
   9.9221310  70.2947580  66.2352230   3.1571040  55.8890490  59.9311600
   3.0285670  55.8808390  60.8796520   2.3333060  56.2273580  59.5802610
  10.8323950  69.0591530  65.4058830  11.4746180  68.3584690  65.5191000
  11.3573300  69.8389970  65.2255720  14.6779670  69.3440150  55.1297970
  14.4517250  68.6270590  55.7222610  14.2875870  69.0952590  54.2919720
  14.2595920  67.2612090  56.7912130  13.9717620  67.7224780  57.5790010
  15.0548090  66.8009860  57.0596350   6.4764320  70.7538210  56.7216100
   6.4674420  71.4867900  56.1060610   5.5562680  70.5069790  56.8143060
  11.6503750  60.1403920  67.1419750  12.0184570  59.3199130  67.4699320
  10.7901950  60.2005810  67.5575400  15.0165780  59.0960860  57.9507310
  14.3878940  59.2006530  57.2365540  14.5217700  59.3157640  58.7401190
   9.4623920  70.8166450  55.3841290   9.5635900  70.6130440  54.4543270
   8.5625660  70.5624730  55.5889070   6.9849810  61.3746810  59.3665190
   6.2765960  61.8433150  59.8078800   7.2694290  60.7168820  60.0010380
   8.6105740  62.7943510  67.3657720   9.1090990  63.2689330  68.0309570
   8.7528690  61.8707030  67.5727750  11.0165240  58.0997470  60.8060980
  10.8933020  58.1183600  59.8570490  11.9649800  58.1476410  60.9259380
   5.1884830  59.6831890  56.7415900   6.0375360  60.1202040  56.6756090
   4.8216100  59.9952150  57.5687960  15.8172600  59.0111470  68.2086110
  15.3146200  59.7516870  68.5479920  16.6329260  59.3995470  67.8922900
  14.1094610  64.2544650  61.6547470  13.1684750  64.2694880  61.8295160
  14.4238680  63.4680610  62.1007770   4.0876250  65.9364250  55.2151430
   4.8539520  65.8245610  55.7776860   4.1650940  65.2402220  54.5628200
   2.7823010  63.3689320  55.8984320   2.8626600  62.4216830  56.0101720
   3.6742760  63.6996200  56.0044980   7.2117430  67.9118430  54.6886780
   7.1068070  67.2970780  55.4148160   7.0441650  67.3884320  53.9049790
  10.4520160  66.9738460  55.2928770   9.9030260  67.4207760  55.9371510
  11.0739420  66.4687710  55.8166440   6.1195280  65.9329380  57.1894070
   6.5411700  65.7669250  58.0325460   6.2446120  65.1229610  56.6949210
   8.6322920  64.9566990  54.4371170   9.1528580  64.2416010  54.0712320
   9.2791320  65.5952860  54.7371680   7.5356440  57.4361540  67.1089730
   7.0873740  57.4585800  66.2635280   6.9021640  57.0380560  67.7060030
   7.9415990  66.3315870  67.7302170   8.3604100  67.1748600  67.5578410
   7.0224620  66.4687910  67.5008950  12.6167790  64.6169240  67.6902520
  12.0903010  65.1411860  67.0867660  12.9599130  65.2496630  68.3212250
   5.0154180  62.0062610  54.1352230   4.8143240  61.1429970  54.4965570
   4.8446230  61.9195970  53.1973830  12.4942490  56.8170840  56.6639110
  12.7744780  55.9738740  57.0198530  11.7208220  57.0493950  57.1777860
   3.8136980  59.1063230  54.1230110   4.1162880  59.1130660  53.2149260
   4.5531570  58.7561090  54.6197770   7.0321910  58.0497850  55.1086310
   6.6843910  57.3721840  54.5288760   7.2334680  57.5887360  55.9229700
   2.8367110  68.4105650  54.9559910   3.2741980  68.9535320  55.6117490
   3.3214840  67.5852600  54.9656250   4.6474830  69.5303690  60.0682140
   4.3470370  69.4068660  60.9686050   4.5412320  68.6712280  59.6597870
  17.4166750  69.3100090  54.7708820  16.5859710  69.3776740  55.2416050
  17.5938580  70.2004210  54.4675680  16.8723210  66.0547570  57.2743020
  17.6342120  66.6244220  57.3802710  16.8877580  65.4874770  58.0451330
  17.8783180  66.9097670  62.1184950  18.2492010  66.1264990  61.7120920
  18.5185110  67.5986770  61.9402250  14.8616940  68.2934250  67.5315270
  14.0476780  68.7231410  67.7941060  15.2691140  68.9052660  66.9184320
  16.9242380  66.3481940  54.4315540  17.1991220  67.2560820  54.3034760
  16.7353120  66.2844470  55.3677530  13.3217990  59.3726790  55.7269170
  13.7402870  59.1857770  54.8865830  13.0154050  58.5205840  56.0372100
  16.8207720  64.2850930  59.4244970  16.4451320  63.5178860  58.9926260
  16.0910840  64.6673630  59.9119900  16.2107340  63.4322450  69.0584490
  15.9793430  63.2035200  68.1582440  16.4711890  64.3522000  69.0129380
  16.0958680  62.5108420  62.7252210  16.6196160  62.0171070  62.0942380
  16.6818100  62.6458780  63.4699780  16.2748400  62.5948290  66.2471760
  15.3251110  62.5611830  66.3616750  16.4561410  63.5048400  66.0121530
   1.7767000  56.8989300  54.3973040   2.4995130  57.4398240  54.7154260
   2.0491520  56.6252720  53.5214580  15.5858650  61.7681770  58.6644620
  16.0817770  61.5352640  59.4493500  15.3874720  60.9293610  58.2482260
  17.0145810  60.4042720  61.1982300  16.9045090  60.2498760  62.1364570
  17.7753400  59.8763660  60.9557710  15.3611530  56.3436850  67.6565300
  15.9983750  56.9570990  68.0224490  15.5086420  56.3797510  66.7114530
  17.9036080  58.2350640  54.4388440  18.8285390  58.1031820  54.2306730
  17.8811870  58.3143460  55.3924890  17.9774570  59.0061300  57.0645150
  17.1826070  58.9406420  57.5938060  18.1817850  59.9411940  57.0530500
   6.5261590  71.0330350  66.8083890   6.2852950  71.3004910  65.9214410
   7.4664230  71.2036080  66.8634750  12.1098610  55.7165240  66.5301980
  11.2358450  56.0500350  66.3274910  12.0009360  55.2438420  67.3553850
  13.0170590  57.9236110  67.9143700  12.6883950  57.1087870  67.5345430
  13.9652890  57.8805920  67.7909390   9.8573430  56.6335080  65.4694890
   9.0745220  57.1080580  65.7491650   9.5636360  55.7289910  65.3608070
  14.4094500  57.3358180  63.5143980  14.8502590  57.2803280  62.6665580
  14.1402090  58.2516190  63.5854160  16.2733070  56.9673420  61.5252800
  16.2121470  56.0234640  61.3783820  17.0525100  57.0753510  62.0706260
   7.7427650  59.0521830  60.9810920   6.9302160  58.6778720  60.6406800
   8.2469290  58.2966910  61.2832110  12.2452630  55.7164280  62.2193990
  12.8482000  56.2884490  62.6942510  11.5045620  56.2803720  61.9967890
  15.3887230  56.1185840  57.4934270  15.5837860  57.0169290  57.7601700
  14.6017100  55.8872920  57.9867220   3.5738990  57.4646610  56.5310580
   4.1031750  56.6776410  56.4018530   4.2067310  58.1437800  56.7646110
   5.7676830  57.2021750  59.5855970   5.1379570  56.5009060  59.7526100
   5.2281970  57.9625880  59.3689130   3.9456280  69.8646120  56.8122470
   3.3165160  70.3331220  57.3608300   4.0604110  69.0195340  57.2468660
  11.4006000  63.9151780  42.9623670  11.3200050  63.0006390  42.6915380
  10.9870420  64.4118850  42.2563380   9.5324040  65.6930800  44.8432940
   8.7566140  65.2131240  45.1331510  10.1836970  65.0136450  44.6689100
   3.5489870  66.0050610  45.7208700   2.7174750  65.7499320  46.1205210
   4.1570850  66.0761380  46.4566620  13.5531470  70.0990990  43.6232070
  13.0913000  69.3278230  43.9519240  14.3657020  70.1257060  44.1284520
   3.5291130  70.0390700  45.9166720   3.8319170  69.1488440  45.7376940
   4.2734720  70.5960920  45.6888970   8.9733030  68.3687990  44.8503100
   8.9041310  67.4277930  44.6892230   9.7352890  68.4589400  45.4225670
  10.0038200  61.1758370  45.0772030  10.3803020  60.3030250  44.9645700
   9.9057710  61.5117070  44.1862470   4.1343210  59.5484000  40.5389470
   4.2409960  60.4487730  40.8458230   3.2235570  59.5001970  40.2484120
  13.7862320  58.6708810  42.0100370  14.6071940  58.1805380  42.0525850
  13.8196400  59.2606470  42.7632210   5.9750940  62.5170370  44.8714650
   6.4829160  63.0151340  45.5119670   6.5064180  61.7405570  44.6954010
  18.0761870  60.6875560  48.5744000  17.3714040  61.0757270  48.0559110
  18.3419790  61.3825850  49.1764930   4.2587040  57.1568930  49.1378070
   4.2605480  57.6741320  48.3323970   3.4291350  56.6799110  49.1148000
  10.6458130  67.2688240  40.6367970  10.0275400  67.7337690  40.0730690
  11.1581380  67.9615720  41.0537480   5.5089890  66.7964110  47.3151570
   5.1759270  67.4233030  47.9572640   5.6856570  67.3225990  46.5353240
  14.0223800  60.6109190  44.7827910  13.3179370  60.8994080  45.3631020
  14.3835960  61.4209300  44.4227470   3.9402370  58.8678890  47.1448520
   4.2819180  59.7120940  46.8502390   3.0018180  59.0162630  47.2613860
   4.7208990  68.7644910  49.1300750   5.3382990  69.4395990  48.8485200
   3.8602110  69.1732890  49.0388250  15.6386580  70.2284320  47.0455390
  14.9550100  70.8983430  47.0372060  16.1780870  70.4264970  46.2800250
  17.0910720  60.0563980  45.1737120  16.1435630  60.0902960  45.3052550
  17.4160710  60.8702930  45.5586480   7.6230260  56.3561160  43.4693110
   7.9305240  55.8008050  42.7528610   6.6930960  56.4905620  43.2866100
  14.4690740  68.7944670  40.8490740  14.3587070  67.8519000  40.9740160
  14.4658990  69.1560310  41.7353500  12.5730760  66.9758290  47.0883180
  12.9899550  66.7618400  46.2536640  13.2970580  67.2331080  47.6591800
  10.0111020  64.4209990  40.2053230   9.0840300  64.3547370  40.4341700
  10.1635840  65.3590120  40.0908470   9.9980100  60.6926990  37.2020390
   9.0583770  60.8540950  37.2872850  10.3163360  61.4112670  36.6556380
  16.5192860  65.3745510  47.1799420  15.6911490  65.4438600  46.7049550
  17.1143340  65.9599820  46.7115250  14.0408310  65.9830290  40.7088480
  13.4220730  65.6449840  40.0614780  14.0232760  65.3390050  41.4167670
  13.4834870  62.1614830  48.1254290  13.0706050  62.9868540  48.3794280
  12.7510820  61.5759870  47.9330650   5.6167660  64.9474730  42.9872960
   5.2124660  64.2351980  42.4918860   5.7030780  64.6027970  43.8761000
   6.0849360  68.6342290  45.1512170   5.7877650  68.0287760  44.4719950
   7.0349180  68.6719600  45.0401530   4.3296280  61.7217940  46.7672000
   4.8810870  61.8313280  45.9925250   4.8439790  62.0955540  47.4827230
   5.1767790  68.3723980  51.8019970   4.2796320  68.5963950  52.0493370
   5.2020660  68.4958920  50.8531370  12.2173010  65.2217100  37.7161230
  12.6566290  64.3839530  37.5699050  12.9301430  65.8546500  37.8025370
   4.0039010  65.2437300  50.3777340   3.8646780  66.1160100  50.7464740
   3.1220370  64.9010110  50.2325280  10.3268390  70.1613170  41.6842470
  10.7664300  70.9037500  41.2697860  10.2655280  70.4039740  42.6081430
   5.8019360  71.1859000  52.5862490   5.7734790  71.5901950  51.7190920
   5.6384330  70.2569360  52.4234090  15.7990150  56.4759910  36.0302270
  15.4862810  56.5686740  36.9301340  16.5602620  57.0540940  35.9799700
   2.3172290  63.8419710  40.4879610   2.1969890  64.5681800  39.8760880
   2.0073180  63.0722620  40.0107520  17.1567430  69.1598950  51.0426670
  17.2830490  68.9210830  50.1243850  17.1988810  68.3283490  51.5148750
  12.6964700  70.6569850  37.6003480  12.0029860  70.6547140  36.9405760
  13.4387560  70.2329170  37.1697650  17.0091440  61.2131410  52.0076410
  16.3935710  61.7211080  51.4791870  16.6887860  60.3129740  51.9502350
   4.7835950  57.1854780  43.8703280   4.3404100  57.9664320  43.5387800
   5.3420940  57.5084670  44.5774220   9.0705760  60.0523300  49.4738600
   8.6085130  60.2606320  50.2858540   8.6683870  59.2382650  49.1709270
  14.0710270  61.2732250  50.6035260  13.2203860  60.9738000  50.9244330
  13.9112060  61.5174260  49.6919080  11.1659980  62.7734000  52.7034050
  11.4913390  61.9397750  52.3636280  11.9540310  63.2962520  52.8512380
   7.8994770  56.8065480  38.7509110   7.2748950  56.8025350  39.4762420
   7.8124890  55.9396440  38.3545080   6.8211850  57.7302110  45.7292880
   7.1184180  58.6364940  45.6484900   7.3697410  57.2420890  45.1152450
   4.5750170  62.3088350  41.5984530   4.3491090  62.0925520  42.5031150
   3.7942700  62.7416810  41.2530500  11.8047930  62.3151720  40.1975180
  11.2056820  63.0387520  40.0138800  12.3527540  62.2528500  39.4151630
   7.0149380  63.2073930  52.2644800   6.9192980  62.2668660  52.1145200
   7.8581360  63.4289000  51.8692870  10.4112800  60.9515260  42.2278460
  10.8042370  61.2687460  41.4147150  10.7729650  60.0727140  42.3422980
   8.7204970  59.7022570  53.4875320   8.0303290  59.5094770  54.1221410
   9.4637270  59.9857210  54.0199620  10.9967940  63.5421010  46.3229240
  10.2649060  64.0507820  46.6719340  10.5992280  62.7250990  46.0218020
   7.4345330  60.2175210  44.7281730   7.4381390  59.7765160  43.8786270
   8.3296450  60.5392540  44.8353550   3.2847710  60.1001700  43.6875940
   2.9447760  60.5776930  44.4442990   2.5225030  59.6466820  43.3277040
   7.4965480  61.2187290  37.7188490   7.6178300  61.1773770  38.6674310
   7.1113990  62.0811440  37.5635220  11.4593850  58.9954690  45.7352180
  11.4766590  59.4463340  46.5794030  11.2109430  58.0960330  45.9485620
   6.5086980  63.5288430  37.1171790   5.9403880  63.0806680  36.4907700
   7.2175980  63.8881210  36.5836940  14.8864600  56.4086870  51.5738560
  15.2110370  55.6776530  52.0996540  14.9221110  56.0900510  50.6719550
   7.7353300  64.2776990  46.4747140   8.1023430  63.8035560  47.2208480
   7.5458360  65.1518560  46.8155480   5.5252670  63.3185630  48.7931350
   5.2209740  64.1977610  49.0181710   6.4799130  63.3785420  48.8288790
   4.0534460  67.5246620  39.3898200   3.2796720  66.9844240  39.2296920
   4.7829090  67.0053230  39.0515960  14.8122440  66.5211980  45.1824590
  15.5321560  67.0167270  44.7920700  14.6104260  65.8429870  44.5378460
  10.2732380  57.9149940  39.3253980   9.4596990  57.4163110  39.2499290
  10.0794330  58.7548190  38.9090330  10.1941240  66.5921040  51.0693590
  10.1278550  65.6716710  50.8151180   9.5646380  66.6896480  51.7838230
  12.9880770  62.2869590  37.6216140  13.8760390  62.5986820  37.4467480
  12.9585860  61.4141840  37.2296720   4.0971860  67.1927000  43.0277010
   4.6150530  66.3895260  42.9733900   3.6455880  67.1306140  43.8693840
   8.9841360  68.4593280  38.3004310   9.3257060  69.2035510  37.8047630
   8.1554070  68.7724400  38.6629140   4.7829520  64.6172610  52.8242260
   4.4829660  64.7629790  51.9270080   5.5540760  64.0577900  52.7315650
  10.1257970  69.4141610  50.8197390  10.1402510  68.4822570  50.6016300
   9.4183070  69.5001370  51.4587160  15.2595040  63.5981430  37.0896000
  15.1758760  64.0295650  36.2392440  15.9789230  64.0579780  37.5222820
  16.3369180  66.0548950  50.1665970  15.6117370  66.6477730  49.9695360
  16.8644640  66.0472490  49.3679340  16.2882290  70.4523690  39.8178130
  15.6458450  69.7979310  40.0921850  15.9012950  70.8578780  39.0418800
  11.8668770  67.7809120  43.6649820  12.2192590  67.1837250  43.0051190
  10.9831100  67.4553350  43.8358070   7.9532050  68.5406810  41.0720230
   8.6403180  69.0876020  41.4527820   7.1664470  69.0847540  41.1069840
   7.2559260  65.5452840  40.6845590   7.7122040  66.3558090  40.9105780
   6.9047470  65.2275980  41.5164080   9.5591870  71.0559180  47.9137890
  10.2034090  71.2618560  48.5911310   9.9221310  70.2947580  47.4608740
   3.1571040  55.8890490  41.1568110   3.0285670  55.8808390  42.1053030
   2.3333060  56.2273580  40.8059120  10.8323950  69.0591530  46.6315340
  11.4746180  68.3584690  46.7447510  11.3573300  69.8389970  46.4512230
  14.6779670  69.3440150  36.3554480  14.4517250  68.6270590  36.9479120
  14.2875870  69.0952590  35.5176230  12.6061570  69.8586430  49.8351400
  12.9417810  70.4453120  50.5129320  11.6861910  69.7279140  50.0649190
  14.2595920  67.2612090  38.0168640  13.9717620  67.7224780  38.8046520
  15.0548090  66.8009860  38.2852860   8.4350150  69.9077760  53.0039460
   8.1147020  69.1887000  53.5485150   7.7608510  70.5832830  53.0775520
   6.4764320  70.7538210  37.9472610   6.4674420  71.4867900  37.3317120
   5.5562680  70.5069790  38.0399570  11.6503750  60.1403920  48.3676260
  12.0184570  59.3199130  48.6955830  10.7901950  60.2005810  48.7831910
  15.0165780  59.0960860  39.1763820  14.3878940  59.2006530  38.4622050
  14.5217700  59.3157640  39.9657700   9.4623920  70.8166450  36.6097800
   9.5635900  70.6130440  35.6799780   8.5625660  70.5624730  36.8145580
   6.9849810  61.3746810  40.5921700   6.2765960  61.8433150  41.0335310
   7.2694290  60.7168820  41.2266890   8.6105740  62.7943510  48.5914230
   9.1090990  63.2689330  49.2566080   8.7528690  61.8707030  48.7984260
  11.0165240  58.0997470  42.0317490  10.8933020  58.1183600  41.0827000
  11.9649800  58.1476410  42.1515890   5.1884830  59.6831890  37.9672410
   6.0375360  60.1202040  37.9012600   4.8216100  59.9952150  38.7944470
  15.8172600  59.0111470  49.4342620  15.3146200  59.7516870  49.7736430
  16.6329260  59.3995470  49.1179410  14.1094610  64.2544650  42.8803980
  13.1684750  64.2694880  43.0551670  14.4238680  63.4680610  43.3264280
   4.0876250  65.9364250  36.4407940   4.8539520  65.8245610  37.0033370
   4.1650940  65.2402220  35.7884710   2.7823010  63.3689320  37.1240830
   2.8626600  62.4216830  37.2358230   3.6742760  63.6996200  37.2301490
  11.4260630  68.8110650  53.3636360  10.8198790  68.8342250  52.6232110
  11.1214740  68.0793690  53.9003610   7.2117430  67.9118430  35.9143290
   7.1068070  67.2970780  36.6404670   7.0441650  67.3884320  35.1306300
   7.3631750  66.5975230  51.8932520   6.5977420  67.1660230  51.8087190
   7.5447710  66.3051440  51.0000750  10.4520160  66.9738460  36.5185280
   9.9030260  67.4207760  37.1628020  11.0739420  66.4687710  37.0422950
  14.5055100  68.3280560  52.4507540  15.2464570  68.6656320  51.9475000
  13.7427780  68.4972620  51.8977310   2.3416890  63.3333830  53.2547070
   2.3822230  63.0347700  54.1632300   3.1962390  63.7341440  53.0954590
   6.1195280  65.9329380  38.4150580   6.5411700  65.7669250  39.2581970
   6.2446120  65.1229610  37.9205720   4.2822700  61.9125930  51.2221560
   3.7519160  61.4216880  50.5944900   4.9510770  62.3410130  50.6879490
   8.6322920  64.9566990  35.6627680   9.1528580  64.2416010  35.2968830
   9.2791320  65.5952860  35.9628190  13.1800760  66.3795390  50.9862750
  13.5941780  66.5340470  51.8353170  12.2451760  66.5050610  51.1488530
  13.6522930  63.7191550  52.9901900  14.2343700  62.9643870  52.9022380
  13.8284700  64.2498990  52.2133380   4.7695000  58.8788300  51.3018850
   4.6751870  58.2609050  50.5769720   4.1892390  59.6054590  51.0748760
   7.5356440  57.4361540  48.3346240   7.0873740  57.4585800  47.4891790
   6.9021640  57.0380560  48.9316540   7.9415990  66.3315870  48.9558680
   8.3604100  67.1748600  48.7834920   7.0224620  66.4687910  48.7265460
  10.2779890  64.0632050  50.3396520  10.3976100  63.4673190  51.0791360
  11.1373890  64.1001740  49.9197820  12.6167790  64.6169240  48.9159030
  12.0903010  65.1411860  48.3124170  12.9599130  65.2496630  49.5468760
   5.0154180  62.0062610  35.3608740   4.8143240  61.1429970  35.7222080
   4.8446230  61.9195970  34.4230340   7.0448660  60.6053400  51.5972340
   7.6348350  60.2969250  52.2850160   6.2268900  60.1333150  51.7532240
  11.8642090  60.2219210  51.8305360  11.1757610  59.5600750  51.7655350
  12.5848110  59.7757480  52.2753820  12.4942490  56.8170840  37.8895620
  12.7744780  55.9738740  38.2455040  11.7208220  57.0493950  38.4034370
   3.8136980  59.1063230  35.3486620   4.1162880  59.1130660  34.4405770
   4.5531570  58.7561090  35.8454280   7.0321910  58.0497850  36.3342820
   6.6843910  57.3721840  35.7545270   7.2334680  57.5887360  37.1486210
   2.8367110  68.4105650  36.1816420   3.2741980  68.9535320  36.8374000
   3.3214840  67.5852600  36.1912760   4.6474830  69.5303690  41.2938650
   4.3470370  69.4068660  42.1942560   4.5412320  68.6712280  40.8854380
  16.1765300  71.5682270  50.6595620  15.5767290  71.6274830  49.9159540
  16.3059200  70.6287250  50.7892470  17.4166750  69.3100090  35.9965330
  16.5859710  69.3776740  36.4672560  17.5938580  70.2004210  35.6932190
  16.8723210  66.0547570  38.4999530  17.6342120  66.6244220  38.6059220
  16.8877580  65.4874770  39.2707840  17.8783180  66.9097670  43.3441460
  18.2492010  66.1264990  42.9377430  18.5185110  67.5986770  43.1658760
  14.8616940  68.2934250  48.7571780  14.0476780  68.7231410  49.0197570
  15.2691140  68.9052660  48.1440830  16.9242380  66.3481940  35.6572050
  17.1991220  67.2560820  35.5291270  16.7353120  66.2844470  36.5934040
  13.3217990  59.3726790  36.9525680  13.7402870  59.1857770  36.1122340
  13.0154050  58.5205840  37.2628610  16.8207720  64.2850930  40.6501480
  16.4451320  63.5178860  40.2182770  16.0910840  64.6673630  41.1376410
  16.2107340  63.4322450  50.2841000  15.9793430  63.2035200  49.3838950
  16.4711890  64.3522000  50.2385890  14.6495410  58.6578880  53.0620700
  15.5265590  58.6662280  53.4454700  14.6616250  57.9209720  52.4513050
  16.0958680  62.5108420  43.9508720  16.6196160  62.0171070  43.3198890
  16.6818100  62.6458780  44.6956290  16.2748400  62.5948290  47.4728270
  15.3251110  62.5611830  47.5873260  16.4561410  63.5048400  47.2378040
   1.7767000  56.8989300  35.6229550   2.4995130  57.4398240  35.9410770
   2.0491520  56.6252720  34.7471090  15.5858650  61.7681770  39.8901130
  16.0817770  61.5352640  40.6750010  15.3874720  60.9293610  39.4738770
  17.0145810  60.4042720  42.4238810  16.9045090  60.2498760  43.3621080
  17.7753400  59.8763660  42.1814220  15.3611530  56.3436850  48.8821810
  15.9983750  56.9570990  49.2481000  15.5086420  56.3797510  47.9371040
  17.9036080  58.2350640  35.6644950  18.8285390  58.1031820  35.4563240
  17.8811870  58.3143460  36.6181400  17.9774570  59.0061300  38.2901660
  17.1826070  58.9406420  38.8194570  18.1817850  59.9411940  38.2787010
   2.8255560  69.4770760  52.4330680   2.7825190  69.1063670  53.3145140
   2.9566570  70.4148330  52.5732500   6.5261590  71.0330350  48.0340400
   6.2852950  71.3004910  47.1470920   7.4664230  71.2036080  48.0891260
   8.7316010  57.4963040  51.7896910   8.6704900  58.0884870  52.5392320
   9.6716390  57.3889000  51.6447170  11.3690570  57.1533100  51.4289200
  11.9830980  57.4712390  50.7670280  11.9140130  56.6681690  52.0485060
   1.8911830  55.8327360  51.5428260   2.4394820  55.6515410  50.7794370
   1.9567140  55.0421470  52.0784570  12.1098610  55.7165240  47.7558490
  11.2358450  56.0500350  47.5531420  12.0009360  55.2438420  48.5810360
  13.0170590  57.9236110  49.1400210  12.6883950  57.1087870  48.7601940
  13.9652890  57.8805920  49.0165900   9.8573430  56.6335080  46.6951400
   9.0745220  57.1080580  46.9748160   9.5636360  55.7289910  46.5864580
  14.4094500  57.3358180  44.7400490  14.8502590  57.2803280  43.8922090
  14.1402090  58.2516190  44.8110670  16.2733070  56.9673420  42.7509310
  16.2121470  56.0234640  42.6040330  17.0525100  57.0753510  43.2962770
   7.7427650  59.0521830  42.2067430   6.9302160  58.6778720  41.8663310
   8.2469290  58.2966910  42.5088620  12.2452630  55.7164280  43.4450500
  12.8482000  56.2884490  43.9199020  11.5045620  56.2803720  43.2224400
  15.3887230  56.1185840  38.7190780  15.5837860  57.0169290  38.9858210
  14.6017100  55.8872920  39.2123730   3.5738990  57.4646610  37.7567090
   4.1031750  56.6776410  37.6275040   4.2067310  58.1437800  37.9902620
   5.7676830  57.2021750  40.8112480   5.1379570  56.5009060  40.9782610
   5.2281970  57.9625880  40.5945640   5.8932390  56.4805730  53.2464970
   5.6116660  56.9839330  52.4825790   6.2752090  55.6827480  52.8807100
   3.9456280  69.8646120  38.0378980   3.3165160  70.3331220  38.5864810
   4.0604110  69.0195340  38.4725170  12.4947850  55.8959310  53.8245440
  12.3813300  56.2153920  54.7196960  13.3117590  56.2971820  53.5282720
  11.4006000  63.9151780  24.1880180  11.3200050  63.0006390  23.9171890
  10.9870420  64.4118850  23.4819890   9.5324040  65.6930800  26.0689450
   8.7566140  65.2131240  26.3588020  10.1836970  65.0136450  25.8945610
   3.5489870  66.0050610  26.9465210   2.7174750  65.7499320  27.3461720
   4.1570850  66.0761380  27.6823130  13.5531470  70.0990990  24.8488580
  13.0913000  69.3278230  25.1775750  14.3657020  70.1257060  25.3541030
   3.5291130  70.0390700  27.1423230   3.8319170  69.1488440  26.9633450
   4.2734720  70.5960920  26.9145480   8.9733030  68.3687990  26.0759610
   8.9041310  67.4277930  25.9148740   9.7352890  68.4589400  26.6482180
  10.0038200  61.1758370  26.3028540  10.3803020  60.3030250  26.1902210
   9.9057710  61.5117070  25.4118980   4.1343210  59.5484000  21.7645980
   4.2409960  60.4487730  22.0714740   3.2235570  59.5001970  21.4740630
  13.7862320  58.6708810  23.2356880  14.6071940  58.1805380  23.2782360
  13.8196400  59.2606470  23.9888720   5.9750940  62.5170370  26.0971160
   6.4829160  63.0151340  26.7376180   6.5064180  61.7405570  25.9210520
  18.0761870  60.6875560  29.8000510  17.3714040  61.0757270  29.2815620
  18.3419790  61.3825850  30.4021440   4.2587040  57.1568930  30.3634580
   4.2605480  57.6741320  29.5580480   3.4291350  56.6799110  30.3404510
  10.6458130  67.2688240  21.8624480  10.0275400  67.7337690  21.2987200
  11.1581380  67.9615720  22.2793990   5.5089890  66.7964110  28.5408080
   5.1759270  67.4233030  29.1829150   5.6856570  67.3225990  27.7609750
  14.0223800  60.6109190  26.0084420  13.3179370  60.8994080  26.5887530
  14.3835960  61.4209300  25.6483980   3.9402370  58.8678890  28.3705030
   4.2819180  59.7120940  28.0758900   3.0018180  59.0162630  28.4870370
   4.7208990  68.7644910  30.3557260   5.3382990  69.4395990  30.0741710
   3.8602110  69.1732890  30.2644760  15.6386580  70.2284320  28.2711900
  14.9550100  70.8983430  28.2628570  16.1780870  70.4264970  27.5056760
  17.0910720  60.0563980  26.3993630  16.1435630  60.0902960  26.5309060
  17.4160710  60.8702930  26.7842990   7.6230260  56.3561160  24.6949620
   7.9305240  55.8008050  23.9785120   6.6930960  56.4905620  24.5122610
  14.4690740  68.7944670  22.0747250  14.3587070  67.8519000  22.1996670
  14.4658990  69.1560310  22.9610010  12.5730760  66.9758290  28.3139690
  12.9899550  66.7618400  27.4793150  13.2970580  67.2331080  28.8848310
  10.0111020  64.4209990  21.4309740   9.0840300  64.3547370  21.6598210
  10.1635840  65.3590120  21.3164980   9.9980100  60.6926990  18.4276900
   9.0583770  60.8540950  18.5129360  10.3163360  61.4112670  17.8812890
  16.5192860  65.3745510  28.4055930  15.6911490  65.4438600  27.9306060
  17.1143340  65.9599820  27.9371760  14.0408310  65.9830290  21.9344990
  13.4220730  65.6449840  21.2871290  14.0232760  65.3390050  22.6424180
  13.4834870  62.1614830  29.3510800  13.0706050  62.9868540  29.6050790
  12.7510820  61.5759870  29.1587160   5.6167660  64.9474730  24.2129470
   5.2124660  64.2351980  23.7175370   5.7030780  64.6027970  25.1017510
   6.0849360  68.6342290  26.3768680   5.7877650  68.0287760  25.6976460
   7.0349180  68.6719600  26.2658040   4.3296280  61.7217940  27.9928510
   4.8810870  61.8313280  27.2181760   4.8439790  62.0955540  28.7083740
   5.1767790  68.3723980  33.0276480   4.2796320  68.5963950  33.2749880
   5.2020660  68.4958920  32.0787880  12.2173010  65.2217100  18.9417740
  12.6566290  64.3839530  18.7955560  12.9301430  65.8546500  19.0281880
   4.0039010  65.2437300  31.6033850   3.8646780  66.1160100  31.9721250
   3.1220370  64.9010110  31.4581790  10.3268390  70.1613170  22.9098980
  10.7664300  70.9037500  22.4954370  10.2655280  70.4039740  23.8337940
   5.8019360  71.1859000  33.8119000   5.7734790  71.5901950  32.9447430
   5.6384330  70.2569360  33.6490600  15.7990150  56.4759910  17.2558780
  15.4862810  56.5686740  18.1557850  16.5602620  57.0540940  17.2056210
   2.3172290  63.8419710  21.7136120   2.1969890  64.5681800  21.1017390
   2.0073180  63.0722620  21.2364030  17.1567430  69.1598950  32.2683180
  17.2830490  68.9210830  31.3500360  17.1988810  68.3283490  32.7405260
  12.6964700  70.6569850  18.8259990  12.0029860  70.6547140  18.1662270
  13.4387560  70.2329170  18.3954160  17.0091440  61.2131410  33.2332920
  16.3935710  61.7211080  32.7048380  16.6887860  60.3129740  33.1758860
   4.7835950  57.1854780  25.0959790   4.3404100  57.9664320  24.7644310
   5.3420940  57.5084670  25.8030730   9.0705760  60.0523300  30.6995110
   8.6085130  60.2606320  31.5115050   8.6683870  59.2382650  30.3965780
  14.0710270  61.2732250  31.8291770  13.2203860  60.9738000  32.1500840
  13.9112060  61.5174260  30.9175590  11.1659980  62.7734000  33.9290560
  11.4913390  61.9397750  33.5892790  11.9540310  63.2962520  34.0768890
   7.8994770  56.8065480  19.9765620   7.2748950  56.8025350  20.7018930
   7.8124890  55.9396440  19.5801590   6.8211850  57.7302110  26.9549390
   7.1184180  58.6364940  26.8741410   7.3697410  57.2420890  26.3408960
   4.5750170  62.3088350  22.8241040   4.3491090  62.0925520  23.7287660
   3.7942700  62.7416810  22.4787010  11.8047930  62.3151720  21.4231690
  11.2056820  63.0387520  21.2395310  12.3527540  62.2528500  20.6408140
   7.0149380  63.2073930  33.4901310   6.9192980  62.2668660  33.3401710
   7.8581360  63.4289000  33.0949380  10.4112800  60.9515260  23.4534970
  10.8042370  61.2687460  22.6403660  10.7729650  60.0727140  23.5679490
   8.7204970  59.7022570  34.7131830   8.0303290  59.5094770  35.3477920
   9.4637270  59.9857210  35.2456130  10.9967940  63.5421010  27.5485750
  10.2649060  64.0507820  27.8975850  10.5992280  62.7250990  27.2474530
   7.4345330  60.2175210  25.9538240   7.4381390  59.7765160  25.1042780
   8.3296450  60.5392540  26.0610060   3.2847710  60.1001700  24.9132450
   2.9447760  60.5776930  25.6699500   2.5225030  59.6466820  24.5533550
   7.4965480  61.2187290  18.9445000   7.6178300  61.1773770  19.8930820
   7.1113990  62.0811440  18.7891730  11.4593850  58.9954690  26.9608690
  11.4766590  59.4463340  27.8050540  11.2109430  58.0960330  27.1742130
   6.5086980  63.5288430  18.3428300   5.9403880  63.0806680  17.7164210
   7.2175980  63.8881210  17.8093450  14.8864600  56.4086870  32.7995070
  15.2110370  55.6776530  33.3253050  14.9221110  56.0900510  31.8976060
   7.7353300  64.2776990  27.7003650   8.1023430  63.8035560  28.4464990
   7.5458360  65.1518560  28.0411990   5.5252670  63.3185630  30.0187860
   5.2209740  64.1977610  30.2438220   6.4799130  63.3785420  30.0545300
   4.0534460  67.5246620  20.6154710   3.2796720  66.9844240  20.4553430
   4.7829090  67.0053230  20.2772470  14.8122440  66.5211980  26.4081100
  15.5321560  67.0167270  26.0177210  14.6104260  65.8429870  25.7634970
  10.2732380  57.9149940  20.5510490   9.4596990  57.4163110  20.4755800
  10.0794330  58.7548190  20.1346840  10.1941240  66.5921040  32.2950100
  10.1278550  65.6716710  32.0407690   9.5646380  66.6896480  33.0094740
  12.9880770  62.2869590  18.8472650  13.8760390  62.5986820  18.6723990
  12.9585860  61.4141840  18.4553230   4.0971860  67.1927000  24.2533520
   4.6150530  66.3895260  24.1990410   3.6455880  67.1306140  25.0950350
   8.9841360  68.4593280  19.5260820   9.3257060  69.2035510  19.0304140
   8.1554070  68.7724400  19.8885650   4.7829520  64.6172610  34.0498770
   4.4829660  64.7629790  33.1526590   5.5540760  64.0577900  33.9572160
  10.1257970  69.4141610  32.0453900  10.1402510  68.4822570  31.8272810
   9.4183070  69.5001370  32.6843670  15.2595040  63.5981430  18.3152510
  15.1758760  64.0295650  17.4648950  15.9789230  64.0579780  18.7479330
  16.3369180  66.0548950  31.3922480  15.6117370  66.6477730  31.1951870
  16.8644640  66.0472490  30.5935850  16.2882290  70.4523690  21.0434640
  15.6458450  69.7979310  21.3178360  15.9012950  70.8578780  20.2675310
  11.8668770  67.7809120  24.8906330  12.2192590  67.1837250  24.2307700
  10.9831100  67.4553350  25.0614580   7.9532050  68.5406810  22.2976740
   8.6403180  69.0876020  22.6784330   7.1664470  69.0847540  22.3326350
   7.2559260  65.5452840  21.9102100   7.7122040  66.3558090  22.1362290
   6.9047470  65.2275980  22.7420590   9.5591870  71.0559180  29.1394400
  10.2034090  71.2618560  29.8167820   9.9221310  70.2947580  28.6865250
   3.1571040  55.8890490  22.3824620   3.0285670  55.8808390  23.3309540
   2.3333060  56.2273580  22.0315630  10.8323950  69.0591530  27.8571850
  11.4746180  68.3584690  27.9704020  11.3573300  69.8389970  27.6768740
  14.6779670  69.3440150  17.5810990  14.4517250  68.6270590  18.1735630
  14.2875870  69.0952590  16.7432740  12.6061570  69.8586430  31.0607910
  12.9417810  70.4453120  31.7385830  11.6861910  69.7279140  31.2905700
  14.2595920  67.2612090  19.2425150  13.9717620  67.7224780  20.0303030
  15.0548090  66.8009860  19.5109370   8.4350150  69.9077760  34.2295970
   8.1147020  69.1887000  34.7741660   7.7608510  70.5832830  34.3032030
   6.4764320  70.7538210  19.1729120   6.4674420  71.4867900  18.5573630
   5.5562680  70.5069790  19.2656080  11.6503750  60.1403920  29.5932770
  12.0184570  59.3199130  29.9212340  10.7901950  60.2005810  30.0088420
  15.0165780  59.0960860  20.4020330  14.3878940  59.2006530  19.6878560
  14.5217700  59.3157640  21.1914210   9.4623920  70.8166450  17.8354310
   9.5635900  70.6130440  16.9056290   8.5625660  70.5624730  18.0402090
   6.9849810  61.3746810  21.8178210   6.2765960  61.8433150  22.2591820
   7.2694290  60.7168820  22.4523400   8.6105740  62.7943510  29.8170740
   9.1090990  63.2689330  30.4822590   8.7528690  61.8707030  30.0240770
  11.0165240  58.0997470  23.2574000  10.8933020  58.1183600  22.3083510
  11.9649800  58.1476410  23.3772400   5.1884830  59.6831890  19.1928920
   6.0375360  60.1202040  19.1269110   4.8216100  59.9952150  20.0200980
  15.8172600  59.0111470  30.6599130  15.3146200  59.7516870  30.9992940
  16.6329260  59.3995470  30.3435920  14.1094610  64.2544650  24.1060490
  13.1684750  64.2694880  24.2808180  14.4238680  63.4680610  24.5520790
   4.0876250  65.9364250  17.6664450   4.8539520  65.8245610  18.2289880
   4.1650940  65.2402220  17.0141220   2.7823010  63.3689320  18.3497340
   2.8626600  62.4216830  18.4614740   3.6742760  63.6996200  18.4558000
  11.4260630  68.8110650  34.5892870  10.8198790  68.8342250  33.8488620
  11.1214740  68.0793690  35.1260120   7.2117430  67.9118430  17.1399800
   7.1068070  67.2970780  17.8661180   7.0441650  67.3884320  16.3562810
   7.3631750  66.5975230  33.1189030   6.5977420  67.1660230  33.0343700
   7.5447710  66.3051440  32.2257260  10.4520160  66.9738460  17.7441790
   9.9030260  67.4207760  18.3884530  11.0739420  66.4687710  18.2679460
  14.5055100  68.3280560  33.6764050  15.2464570  68.6656320  33.1731510
  13.7427780  68.4972620  33.1233820   2.3416890  63.3333830  34.4803580
   2.3822230  63.0347700  35.3888810   3.1962390  63.7341440  34.3211100
   6.1195280  65.9329380  19.6407090   6.5411700  65.7669250  20.4838480
   6.2446120  65.1229610  19.1462230   4.2822700  61.9125930  32.4478070
   3.7519160  61.4216880  31.8201410   4.9510770  62.3410130  31.9136000
   8.6322920  64.9566990  16.8884190   9.1528580  64.2416010  16.5225340
   9.2791320  65.5952860  17.1884700  13.1800760  66.3795390  32.2119260
  13.5941780  66.5340470  33.0609680  12.2451760  66.5050610  32.3745040
  13.6522930  63.7191550  34.2158410  14.2343700  62.9643870  34.1278890
  13.8284700  64.2498990  33.4389890   4.7695000  58.8788300  32.5275360
   4.6751870  58.2609050  31.8026230   4.1892390  59.6054590  32.3005270
   7.5356440  57.4361540  29.5602750   7.0873740  57.4585800  28.7148300
   6.9021640  57.0380560  30.1573050   7.9415990  66.3315870  30.1815190
   8.3604100  67.1748600  30.0091430   7.0224620  66.4687910  29.9521970
  10.2779890  64.0632050  31.5653030  10.3976100  63.4673190  32.3047870
  11.1373890  64.1001740  31.1454330  12.6167790  64.6169240  30.1415540
  12.0903010  65.1411860  29.5380680  12.9599130  65.2496630  30.7725270
   5.0154180  62.0062610  16.5865250   4.8143240  61.1429970  16.9478590
   4.8446230  61.9195970  15.6486850   7.0448660  60.6053400  32.8228850
   7.6348350  60.2969250  33.5106670   6.2268900  60.1333150  32.9788750
  11.8642090  60.2219210  33.0561870  11.1757610  59.5600750  32.9911860
  12.5848110  59.7757480  33.5010330  12.4942490  56.8170840  19.1152130
  12.7744780  55.9738740  19.4711550  11.7208220  57.0493950  19.6290880
   3.8136980  59.1063230  16.5743130   4.1162880  59.1130660  15.6662280
   4.5531570  58.7561090  17.0710790   7.0321910  58.0497850  17.5599330
   6.6843910  57.3721840  16.9801780   7.2334680  57.5887360  18.3742720
   2.8367110  68.4105650  17.4072930   3.2741980  68.9535320  18.0630510
   3.3214840  67.5852600  17.4169270   4.6474830  69.5303690  22.5195160
   4.3470370  69.4068660  23.4199070   4.5412320  68.6712280  22.1110890
  16.1765300  71.5682270  31.8852130  15.5767290  71.6274830  31.1416050
  16.3059200  70.6287250  32.0148980  17.4166750  69.3100090  17.2221840
  16.5859710  69.3776740  17.6929070  17.5938580  70.2004210  16.9188700
  16.8723210  66.0547570  19.7256040  17.6342120  66.6244220  19.8315730
  16.8877580  65.4874770  20.4964350  17.8783180  66.9097670  24.5697970
  18.2492010  66.1264990  24.1633940  18.5185110  67.5986770  24.3915270
  14.8616940  68.2934250  29.9828290  14.0476780  68.7231410  30.2454080
  15.2691140  68.9052660  29.3697340  16.9242380  66.3481940  16.8828560
  17.1991220  67.2560820  16.7547780  16.7353120  66.2844470  17.8190550
  13.3217990  59.3726790  18.1782190  13.7402870  59.1857770  17.3378850
  13.0154050  58.5205840  18.4885120  16.8207720  64.2850930  21.8757990
  16.4451320  63.5178860  21.4439280  16.0910840  64.6673630  22.3632920
  16.2107340  63.4322450  31.5097510  15.9793430  63.2035200  30.6095460
  16.4711890  64.3522000  31.4642400  14.6495410  58.6578880  34.2877210
  15.5265590  58.6662280  34.6711210  14.6616250  57.9209720  33.6769560
  16.0958680  62.5108420  25.1765230  16.6196160  62.0171070  24.5455400
  16.6818100  62.6458780  25.9212800  16.2748400  62.5948290  28.6984780
  15.3251110  62.5611830  28.8129770  16.4561410  63.5048400  28.4634550
   1.7767000  56.8989300  16.8486060   2.4995130  57.4398240  17.1667280
   2.0491520  56.6252720  15.9727600  15.5858650  61.7681770  21.1157640
  16.0817770  61.5352640  21.9006520  15.3874720  60.9293610  20.6995280
  17.0145810  60.4042720  23.6495320  16.9045090  60.2498760  24.5877590
  17.7753400  59.8763660  23.4070730  15.3611530  56.3436850  30.1078320
  15.9983750  56.9570990  30.4737510  15.5086420  56.3797510  29.1627550
  17.9036080  58.2350640  16.8901460  18.8285390  58.1031820  16.6819750
  17.8811870  58.3143460  17.8437910  17.9774570  59.0061300  19.5158170
  17.1826070  58.9406420  20.0451080  18.1817850  59.9411940  19.5043520
   2.8255560  69.4770760  33.6587190   2.7825190  69.1063670  34.5401650
   2.9566570  70.4148330  33.7989010   6.5261590  71.0330350  29.2596910
   6.2852950  71.3004910  28.3727430   7.4664230  71.2036080  29.3147770
   8.7316010  57.4963040  33.0153420   8.6704900  58.0884870  33.7648830
   9.6716390  57.3889000  32.8703680  11.3690570  57.1533100  32.6545710
  11.9830980  57.4712390  31.9926790  11.9140130  56.6681690  33.2741570
   1.8911830  55.8327360  32.7684770   2.4394820  55.6515410  32.0050880
   1.9567140  55.0421470  33.3041080  12.1098610  55.7165240  28.9815000
  11.2358450  56.0500350  28.7787930  12.0009360  55.2438420  29.8066870
  13.0170590  57.9236110  30.3656720  12.6883950  57.1087870  29.9858450
  13.9652890  57.8805920  30.2422410   9.8573430  56.6335080  27.9207910
   9.0745220  57.1080580  28.2004670   9.5636360  55.7289910  27.8121090
  14.4094500  57.3358180  25.9657000  14.8502590  57.2803280  25.1178600
  14.1402090  58.2516190  26.0367180  16.2733070  56.9673420  23.9765820
  16.2121470  56.0234640  23.8296840  17.0525100  57.0753510  24.5219280
   7.7427650  59.0521830  23.4323940   6.9302160  58.6778720  23.0919820
   8.2469290  58.2966910  23.7345130  12.2452630  55.7164280  24.6707010
  12.8482000  56.2884490  25.1455530  11.5045620  56.2803720  24.4480910
  15.3887230  56.1185840  19.9447290  15.5837860  57.0169290  20.2114720
  14.6017100  55.8872920  20.4380240   3.5738990  57.4646610  18.9823600
   4.1031750  56.6776410  18.8531550   4.2067310  58.1437800  19.2159130
   5.7676830  57.2021750  22.0368990   5.1379570  56.5009060  22.2039120
   5.2281970  57.9625880  21.8202150   5.8932390  56.4805730  34.4721480
   5.6116660  56.9839330  33.7082300   6.2752090  55.6827480  34.1063610
   3.9456280  69.8646120  19.2635490   3.3165160  70.3331220  19.8121320
   4.0604110  69.0195340  19.6981680  12.4947850  55.8959310  35.0501950
  12.3813300  56.2153920  35.9453470  13.3117590  56.2971820  34.7539230
  11.4006000  63.9151780   5.4136690  11.3200050  63.0006390   5.1428400
  10.9870420  64.4118850   4.7076400   9.5324040  65.6930800   7.2945960
   8.7566140  65.2131240   7.5844530  10.1836970  65.0136450   7.1202120
   3.5489870  66.0050610   8.1721720   2.7174750  65.7499320   8.5718230
   4.1570850  66.0761380   8.9079640  13.5531470  70.0990990   6.0745090
  13.0913000  69.3278230   6.4032260  14.3657020  70.1257060   6.5797540
   3.5291130  70.0390700   8.3679740   3.8319170  69.1488440   8.1889960
   4.2734720  70.5960920   8.1401990   8.9733030  68.3687990   7.3016120
   8.9041310  67.4277930   7.1405250   9.7352890  68.4589400   7.8738690
  10.0038200  61.1758370   7.5285050  10.3803020  60.3030250   7.4158720
   9.9057710  61.5117070   6.6375490   4.1343210  59.5484000   2.9902490
   4.2409960  60.4487730   3.2971250   3.2235570  59.5001970   2.6997140
  13.7862320  58.6708810   4.4613390  14.6071940  58.1805380   4.5038870
  13.8196400  59.2606470   5.2145230   5.9750940  62.5170370   7.3227670
   6.4829160  63.0151340   7.9632690   6.5064180  61.7405570   7.1467030
  18.0761870  60.6875560  11.0257020  17.3714040  61.0757270  10.5072130
  18.3419790  61.3825850  11.6277950   4.2587040  57.1568930  11.5891090
   4.2605480  57.6741320  10.7836990   3.4291350  56.6799110  11.5661020
  10.6458130  67.2688240   3.0880990  10.0275400  67.7337690   2.5243710
  11.1581380  67.9615720   3.5050500   5.5089890  66.7964110   9.7664590
   5.1759270  67.4233030  10.4085660   5.6856570  67.3225990   8.9866260
  14.0223800  60.6109190   7.2340930  13.3179370  60.8994080   7.8144040
  14.3835960  61.4209300   6.8740490   3.9402370  58.8678890   9.5961540
   4.2819180  59.7120940   9.3015410   3.0018180  59.0162630   9.7126880
   4.7208990  68.7644910  11.5813770   5.3382990  69.4395990  11.2998220
   3.8602110  69.1732890  11.4901270  15.6386580  70.2284320   9.4968410
  14.9550100  70.8983430   9.4885080  16.1780870  70.4264970   8.7313270
  17.0910720  60.0563980   7.6250140  16.1435630  60.0902960   7.7565570
  17.4160710  60.8702930   8.0099500   7.6230260  56.3561160   5.9206130
   7.9305240  55.8008050   5.2041630   6.6930960  56.4905620   5.7379120
  14.4690740  68.7944670   3.3003760  14.3587070  67.8519000   3.4253180
  14.4658990  69.1560310   4.1866520  12.5730760  66.9758290   9.5396200
  12.9899550  66.7618400   8.7049660  13.2970580  67.2331080  10.1104820
  10.0111020  64.4209990   2.6566250   9.0840300  64.3547370   2.8854720
  10.1635840  65.3590120   2.5421490  16.5192860  65.3745510   9.6312440
  15.6911490  65.4438600   9.1562570  17.1143340  65.9599820   9.1628270
  14.0408310  65.9830290   3.1601500  13.4220730  65.6449840   2.5127800
  14.0232760  65.3390050   3.8680690  13.4834870  62.1614830  10.5767310
  13.0706050  62.9868540  10.8307300  12.7510820  61.5759870  10.3843670
   5.6167660  64.9474730   5.4385980   5.2124660  64.2351980   4.9431880
   5.7030780  64.6027970   6.3274020   6.0849360  68.6342290   7.6025190
   5.7877650  68.0287760   6.9232970   7.0349180  68.6719600   7.4914550
   4.3296280  61.7217940   9.2185020   4.8810870  61.8313280   8.4438270
   4.8439790  62.0955540   9.9340250   5.1767790  68.3723980  14.2532990
   4.2796320  68.5963950  14.5006390   5.2020660  68.4958920  13.3044390
   4.0039010  65.2437300  12.8290360   3.8646780  66.1160100  13.1977760
   3.1220370  64.9010110  12.6838300  10.3268390  70.1613170   4.1355490
  10.7664300  70.9037500   3.7210880  10.2655280  70.4039740   5.0594450
   5.8019360  71.1859000  15.0375510   5.7734790  71.5901950  14.1703940
   5.6384330  70.2569360  14.8747110   2.3172290  63.8419710   2.9392630
   2.1969890  64.5681800   2.3273900   2.0073180  63.0722620   2.4620540
  17.1567430  69.1598950  13.4939690  17.2830490  68.9210830  12.5756870
  17.1988810  68.3283490  13.9661770  17.0091440  61.2131410  14.4589430
  16.3935710  61.7211080  13.9304890  16.6887860  60.3129740  14.4015370
   4.7835950  57.1854780   6.3216300   4.3404100  57.9664320   5.9900820
   5.3420940  57.5084670   7.0287240   9.0705760  60.0523300  11.9251620
   8.6085130  60.2606320  12.7371560   8.6683870  59.2382650  11.6222290
  14.0710270  61.2732250  13.0548280  13.2203860  60.9738000  13.3757350
  13.9112060  61.5174260  12.1432100  11.1659980  62.7734000  15.1547070
  11.4913390  61.9397750  14.8149300  11.9540310  63.2962520  15.3025400
   6.8211850  57.7302110   8.1805900   7.1184180  58.6364940   8.0997920
   7.3697410  57.2420890   7.5665470   4.5750170  62.3088350   4.0497550
   4.3491090  62.0925520   4.9544170   3.7942700  62.7416810   3.7043520
  11.8047930  62.3151720   2.6488200  11.2056820  63.0387520   2.4651820
  12.3527540  62.2528500   1.8664650   7.0149380  63.2073930  14.7157820
   6.9192980  62.2668660  14.5658220   7.8581360  63.4289000  14.3205890
  10.4112800  60.9515260   4.6791480  10.8042370  61.2687460   3.8660170
  10.7729650  60.0727140   4.7936000   8.7204970  59.7022570  15.9388340
   8.0303290  59.5094770  16.5734430   9.4637270  59.9857210  16.4712640
  10.9967940  63.5421010   8.7742260  10.2649060  64.0507820   9.1232360
  10.5992280  62.7250990   8.4731040   7.4345330  60.2175210   7.1794750
   7.4381390  59.7765160   6.3299290   8.3296450  60.5392540   7.2866570
   3.2847710  60.1001700   6.1388960   2.9447760  60.5776930   6.8956010
   2.5225030  59.6466820   5.7790060  11.4593850  58.9954690   8.1865200
  11.4766590  59.4463340   9.0307050  11.2109430  58.0960330   8.3998640
  14.8864600  56.4086870  14.0251580  15.2110370  55.6776530  14.5509560
  14.9221110  56.0900510  13.1232570   7.7353300  64.2776990   8.9260160
   8.1023430  63.8035560   9.6721500   7.5458360  65.1518560   9.2668500
   5.5252670  63.3185630  11.2444370   5.2209740  64.1977610  11.4694730
   6.4799130  63.3785420  11.2801810   4.0534460  67.5246620   1.8411220
   3.2796720  66.9844240   1.6809940   4.7829090  67.0053230   1.5028980
  14.8122440  66.5211980   7.6337610  15.5321560  67.0167270   7.2433720
  14.6104260  65.8429870   6.9891480  10.2732380  57.9149940   1.7767000
   9.4596990  57.4163110   1.7012310  10.0794330  58.7548190   1.3603350
  10.1941240  66.5921040  13.5206610  10.1278550  65.6716710  13.2664200
   9.5646380  66.6896480  14.2351250   4.0971860  67.1927000   5.4790030
   4.6150530  66.3895260   5.4246920   3.6455880  67.1306140   6.3206860
   4.7829520  64.6172610  15.2755280   4.4829660  64.7629790  14.3783100
   5.5540760  64.0577900  15.1828670  10.1257970  69.4141610  13.2710410
  10.1402510  68.4822570  13.0529320   9.4183070  69.5001370  13.9100180
  16.3369180  66.0548950  12.6178990  15.6117370  66.6477730  12.4208380
  16.8644640  66.0472490  11.8192360  16.2882290  70.4523690   2.2691150
  15.6458450  69.7979310   2.5434870  15.9012950  70.8578780   1.4931820
  11.8668770  67.7809120   6.1162840  12.2192590  67.1837250   5.4564210
  10.9831100  67.4553350   6.2871090   7.9532050  68.5406810   3.5233250
   8.6403180  69.0876020   3.9040840   7.1664470  69.0847540   3.5582860
   7.2559260  65.5452840   3.1358610   7.7122040  66.3558090   3.3618800
   6.9047470  65.2275980   3.9677100   9.5591870  71.0559180  10.3650910
  10.2034090  71.2618560  11.0424330   9.9221310  70.2947580   9.9121760
   3.1571040  55.8890490   3.6081130   3.0285670  55.8808390   4.5566050
   2.3333060  56.2273580   3.2572140  10.8323950  69.0591530   9.0828360
  11.4746180  68.3584690   9.1960530  11.3573300  69.8389970   8.9025250
  12.6061570  69.8586430  12.2864420  12.9417810  70.4453120  12.9642340
  11.6861910  69.7279140  12.5162210   8.4350150  69.9077760  15.4552480
   8.1147020  69.1887000  15.9998170   7.7608510  70.5832830  15.5288540
  11.6503750  60.1403920  10.8189280  12.0184570  59.3199130  11.1468850
  10.7901950  60.2005810  11.2344930   6.9849810  61.3746810   3.0434720
   6.2765960  61.8433150   3.4848330   7.2694290  60.7168820   3.6779910
   8.6105740  62.7943510  11.0427250   9.1090990  63.2689330  11.7079100
   8.7528690  61.8707030  11.2497280  11.0165240  58.0997470   4.4830510
  10.8933020  58.1183600   3.5340020  11.9649800  58.1476410   4.6028910
  15.8172600  59.0111470  11.8855640  15.3146200  59.7516870  12.2249450
  16.6329260  59.3995470  11.5692430  14.1094610  64.2544650   5.3317000
  13.1684750  64.2694880   5.5064690  14.4238680  63.4680610   5.7777300
  11.4260630  68.8110650  15.8149380  10.8198790  68.8342250  15.0745130
  11.1214740  68.0793690  16.3516630   7.3631750  66.5975230  14.3445540
   6.5977420  67.1660230  14.2600210   7.5447710  66.3051440  13.4513770
  14.5055100  68.3280560  14.9020560  15.2464570  68.6656320  14.3988020
  13.7427780  68.4972620  14.3490330   2.3416890  63.3333830  15.7060090
   2.3822230  63.0347700  16.6145320   3.1962390  63.7341440  15.5467610
   4.2822700  61.9125930  13.6734580   3.7519160  61.4216880  13.0457920
   4.9510770  62.3410130  13.1392510  13.1800760  66.3795390  13.4375770
  13.5941780  66.5340470  14.2866190  12.2451760  66.5050610  13.6001550
  13.6522930  63.7191550  15.4414920  14.2343700  62.9643870  15.3535400
  13.8284700  64.2498990  14.6646400   4.7695000  58.8788300  13.7531870
   4.6751870  58.2609050  13.0282740   4.1892390  59.6054590  13.5261780
   7.5356440  57.4361540  10.7859260   7.0873740  57.4585800   9.9404810
   6.9021640  57.0380560  11.3829560   7.9415990  66.3315870  11.4071700
   8.3604100  67.1748600  11.2347940   7.0224620  66.4687910  11.1778480
  10.2779890  64.0632050  12.7909540  10.3976100  63.4673190  13.5304380
  11.1373890  64.1001740  12.3710840  12.6167790  64.6169240  11.3672050
  12.0903010  65.1411860  10.7637190  12.9599130  65.2496630  11.9981780
   7.0448660  60.6053400  14.0485360   7.6348350  60.2969250  14.7363180
   6.2268900  60.1333150  14.2045260  11.8642090  60.2219210  14.2818380
  11.1757610  59.5600750  14.2168370  12.5848110  59.7757480  14.7266840
   4.6474830  69.5303690   3.7451670   4.3470370  69.4068660   4.6455580
   4.5412320  68.6712280   3.3367400  16.1765300  71.5682270  13.1108640
  15.5767290  71.6274830  12.3672560  16.3059200  70.6287250  13.2405490
  17.8783180  66.9097670   5.7954480  18.2492010  66.1264990   5.3890450
  18.5185110  67.5986770   5.6171780  14.8616940  68.2934250  11.2084800
  14.0476780  68.7231410  11.4710590  15.2691140  68.9052660  10.5953850
  16.8207720  64.2850930   3.1014500  16.4451320  63.5178860   2.6695790
  16.0910840  64.6673630   3.5889430  16.2107340  63.4322450  12.7354020
  15.9793430  63.2035200  11.8351970  16.4711890  64.3522000  12.6898910
  14.6495410  58.6578880  15.5133720  15.5265590  58.6662280  15.8967720
  14.6616250  57.9209720  14.9026070  16.0958680  62.5108420   6.4021740
  16.6196160  62.0171070   5.7711910  16.6818100  62.6458780   7.1469310
  16.2748400  62.5948290   9.9241290  15.3251110  62.5611830  10.0386280
  16.4561410  63.5048400   9.6891060  15.5858650  61.7681770   2.3414150
  16.0817770  61.5352640   3.1263030  15.3874720  60.9293610   1.9251790
  17.0145810  60.4042720   4.8751830  16.9045090  60.2498760   5.8134100
  17.7753400  59.8763660   4.6327240  15.3611530  56.3436850  11.3334830
  15.9983750  56.9570990  11.6994020  15.5086420  56.3797510  10.3884060
   2.8255560  69.4770760  14.8843700   2.7825190  69.1063670  15.7658160
   2.9566570  70.4148330  15.0245520   6.5261590  71.0330350  10.4853420
   6.2852950  71.3004910   9.5983940   7.4664230  71.2036080  10.5404280
   8.7316010  57.4963040  14.2409930   8.6704900  58.0884870  14.9905340
   9.6716390  57.3889000  14.0960190  11.3690570  57.1533100  13.8802220
  11.9830980  57.4712390  13.2183300  11.9140130  56.6681690  14.4998080
   1.8911830  55.8327360  13.9941280   2.4394820  55.6515410  13.2307390
   1.9567140  55.0421470  14.5297590  12.1098610  55.7165240  10.2071510
  11.2358450  56.0500350  10.0044440  12.0009360  55.2438420  11.0323380
  13.0170590  57.9236110  11.5913230  12.6883950  57.1087870  11.2114960
  13.9652890  57.8805920  11.4678920   9.8573430  56.6335080   9.1464420
   9.0745220  57.1080580   9.4261180   9.5636360  55.7289910   9.0377600
  14.4094500  57.3358180   7.1913510  14.8502590  57.2803280   6.3435110
  14.1402090  58.2516190   7.2623690  16.2733070  56.9673420   5.2022330
  16.2121470  56.0234640   5.0553350  17.0525100  57.0753510   5.7475790
   7.7427650  59.0521830   4.6580450   6.9302160  58.6778720   4.3176330
   8.2469290  58.2966910   4.9601640  12.2452630  55.7164280   5.8963520
  12.8482000  56.2884490   6.3712040  11.5045620  56.2803720   5.6737420
   5.7676830  57.2021750   3.2625500   5.1379570  56.5009060   3.4295630
   5.2281970  57.9625880   3.0458660   5.8932390  56.4805730  15.6977990
   5.6116660  56.9839330  14.9338810   6.2752090  55.6827480  15.3320120
  12.4947850  55.8959310  16.2758460  12.3813300  56.2153920  17.1709980
  13.3117590  56.2971820  15.9795740  11.4006000  45.1408290  61.7367160
  11.3200050  44.2262900  61.4658870  10.9870420  45.6375360  61.0306870
   9.5324040  46.9187310  63.6176430   8.7566140  46.4387750  63.9075000
  10.1836970  46.2392960  63.4432590   3.5489870  47.2307120  64.4952190
   2.7174750  46.9755830  64.8948700   4.1570850  47.3017890  65.2310110
  13.5531470  51.3247500  62.3975560  13.0913000  50.5534740  62.7262730
  14.3657020  51.3513570  62.9028010   3.5291130  51.2647210  64.6910210
   3.8319170  50.3744950  64.5120430   4.2734720  51.8217430  64.4632460
   9.7794780  53.6105510  62.0179550   9.1606220  54.0663010  61.4473990
  10.6346560  53.7656970  61.6169250   8.9733030  49.5944500  63.6246590
   8.9041310  48.6534440  63.4635720   9.7352890  49.6845910  64.1969160
  10.0038200  42.4014880  63.8515520  10.3803020  41.5286760  63.7389190
   9.9057710  42.7373580  62.9605960   4.1343210  40.7740510  59.3132960
   4.2409960  41.6744240  59.6201720   3.2235570  40.7258480  59.0227610
  13.7862320  39.8965320  60.7843860  14.6071940  39.4061890  60.8269340
  13.8196400  40.4862980  61.5375700   5.9750940  43.7426880  63.6458140
   6.4829160  44.2407850  64.2863160   6.5064180  42.9662080  63.4697500
  18.0761870  41.9132070  67.3487490  17.3714040  42.3013780  66.8302600
  18.3419790  42.6082360  67.9508420   4.2587040  38.3825440  67.9121560
   4.2605480  38.8997830  67.1067460   3.4291350  37.9055620  67.8891490
  10.6458130  48.4944750  59.4111460  10.0275400  48.9594200  58.8474180
  11.1581380  49.1872230  59.8280970   5.5089890  48.0220620  66.0895060
   5.1759270  48.6489540  66.7316130   5.6856570  48.5482500  65.3096730
  14.0223800  41.8365700  63.5571400  13.3179370  42.1250590  64.1374510
  14.3835960  42.6465810  63.1970960   3.9402370  40.0935400  65.9192010
   4.2819180  40.9377450  65.6245880   3.0018180  40.2419140  66.0357350
   4.7208990  49.9901420  67.9044240   5.3382990  50.6652500  67.6228690
   3.8602110  50.3989400  67.8131740  15.6386580  51.4540830  65.8198880
  14.9550100  52.1239940  65.8115550  16.1780870  51.6521480  65.0543740
  17.0910720  41.2820490  63.9480610  16.1435630  41.3159470  64.0796040
  17.4160710  42.0959440  64.3329970   7.6230260  37.5817670  62.2436600
   7.9305240  37.0264560  61.5272100   6.6930960  37.7162130  62.0609590
  13.1745320  53.2984960  64.5344060  13.1872480  52.8947250  63.6666320
  12.6220540  54.0732250  64.4305490  14.4690740  50.0201180  59.6234230
  14.3587070  49.0775510  59.7483650  14.4658990  50.3816820  60.5096990
  12.5730760  48.2014800  65.8626670  12.9899550  47.9874910  65.0280130
  13.2970580  48.4587590  66.4335290  10.0111020  45.6466500  58.9796720
   9.0840300  45.5803880  59.2085190  10.1635840  46.5846630  58.8651960
   9.9980100  41.9183500  55.9763880   9.0583770  42.0797460  56.0616340
  10.3163360  42.6369180  55.4299870  16.5192860  46.6002020  65.9542910
  15.6911490  46.6695110  65.4793040  17.1143340  47.1856330  65.4858740
  14.0408310  47.2086800  59.4831970  13.4220730  46.8706350  58.8358270
  14.0232760  46.5646560  60.1911160  13.4834870  43.3871340  66.8997780
  13.0706050  44.2125050  67.1537770  12.7510820  42.8016380  66.7074140
   5.6167660  46.1731240  61.7616450   5.2124660  45.4608490  61.2662350
   5.7030780  45.8284480  62.6504490   6.0849360  49.8598800  63.9255660
   5.7877650  49.2544270  63.2463440   7.0349180  49.8976110  63.8145020
   4.3296280  42.9474450  65.5415490   4.8810870  43.0569790  64.7668740
   4.8439790  43.3212050  66.2570720  14.1734970  53.4330670  67.5878760
  13.6965530  54.2402860  67.3951370  13.4896760  52.7809000  67.7404970
  12.2173010  46.4473610  56.4904720  12.6566290  45.6096040  56.3442540
  12.9301430  47.0803010  56.5768860  10.3268390  51.3869680  60.4585960
  10.7664300  52.1294010  60.0441350  10.2655280  51.6296250  61.3824920
  15.7990150  37.7016420  54.8045760  15.4862810  37.7943250  55.7044830
  16.5602620  38.2797450  54.7543190   2.3172290  45.0676220  59.2623100
   2.1969890  45.7938310  58.6504370   2.0073180  44.2979130  58.7851010
  12.9938570  54.3738800  57.8148970  12.8339710  54.0841740  58.7130800
  12.8285280  53.5978930  57.2794200   5.4726950  54.1537330  59.5920590
   5.2969430  53.2372870  59.3788390   4.6182690  54.5124620  59.8318390
  12.6964700  51.8826360  56.3746970  12.0029860  51.8803650  55.7149250
  13.4387560  51.4585680  55.9441140  12.2614630  53.5089070  60.4495460
  12.7171580  52.7278450  60.7634080  12.6007150  54.2195890  60.9936640
   4.7835950  38.4111290  62.6446770   4.3404100  39.1920830  62.3131290
   5.3420940  38.7341180  63.3517710   9.0705760  41.2779810  68.2482090
   8.6085130  41.4862830  69.0602030   8.6683870  40.4639160  67.9452760
   7.8994770  38.0321990  57.5252600   7.2748950  38.0281860  58.2505910
   7.8124890  37.1652950  57.1288570   6.8211850  38.9558620  64.5036370
   7.1184180  39.8621450  64.4228390   7.3697410  38.4677400  63.8895940
   4.5750170  43.5344860  60.3728020   4.3491090  43.3182030  61.2774640
   3.7942700  43.9673320  60.0273990  11.8047930  43.5408230  58.9718670
  11.2056820  44.2644030  58.7882290  12.3527540  43.4785010  58.1895120
  10.4112800  42.1771770  61.0021950  10.8042370  42.4943970  60.1890640
  10.7729650  41.2983650  61.1166470  10.9967940  44.7677520  65.0972730
  10.2649060  45.2764330  65.4462830  10.5992280  43.9507500  64.7961510
   7.4345330  41.4431720  63.5025220   7.4381390  41.0021670  62.6529760
   8.3296450  41.7649050  63.6097040   3.2847710  41.3258210  62.4619430
   2.9447760  41.8033440  63.2186480   2.5225030  40.8723330  62.1020530
   7.4965480  42.4443800  56.4931980   7.6178300  42.4030280  57.4417800
   7.1113990  43.3067950  56.3378710  11.4593850  40.2211200  64.5095670
  11.4766590  40.6719850  65.3537520  11.2109430  39.3216840  64.7229110
   6.5086980  44.7544940  55.8915280   5.9403880  44.3063190  55.2651190
   7.2175980  45.1137720  55.3580430   7.7353300  45.5033500  65.2490630
   8.1023430  45.0292070  65.9951970   7.5458360  46.3775070  65.5898970
   5.5252670  44.5442140  67.5674840   5.2209740  45.4234120  67.7925200
   6.4799130  44.6041930  67.6032280   4.0534460  48.7503130  58.1641690
   3.2796720  48.2100750  58.0040410   4.7829090  48.2309740  57.8259450
  14.8122440  47.7468490  63.9568080  15.5321560  48.2423780  63.5664190
  14.6104260  47.0686380  63.3121950  10.2732380  39.1406450  58.0997470
   9.4596990  38.6419620  58.0242780  10.0794330  39.9804700  57.6833820
  12.9880770  43.5126100  56.3959630  13.8760390  43.8243330  56.2210970
  12.9585860  42.6398350  56.0040210   4.0971860  48.4183510  61.8020500
   4.6150530  47.6151770  61.7477390   3.6455880  48.3562650  62.6437330
   8.9841360  49.6849790  57.0747800   9.3257060  50.4292020  56.5791120
   8.1554070  49.9980910  57.4372630  15.2595040  44.8237940  55.8639490
  15.1758760  45.2552160  55.0135930  15.9789230  45.2836290  56.2966310
  16.3369180  47.2805460  68.9409460  15.6117370  47.8734240  68.7438850
  16.8644640  47.2729000  68.1422830  16.2882290  51.6780200  58.5921620
  15.6458450  51.0235820  58.8665340  15.9012950  52.0835290  57.8162290
  11.8668770  49.0065630  62.4393310  12.2192590  48.4093760  61.7794680
  10.9831100  48.6809860  62.6101560   7.9532050  49.7663320  59.8463720
   8.6403180  50.3132530  60.2271310   7.1664470  50.3104050  59.8813330
   7.2559260  46.7709350  59.4589080   7.7122040  47.5814600  59.6849270
   6.9047470  46.4532490  60.2907570   9.5591870  52.2815690  66.6881380
  10.2034090  52.4875070  67.3654800   9.9221310  51.5204090  66.2352230
   3.1571040  37.1147000  59.9311600   3.0285670  37.1064900  60.8796520
   2.3333060  37.4530090  59.5802610  10.8323950  50.2848040  65.4058830
  11.4746180  49.5841200  65.5191000  11.3573300  51.0646480  65.2255720
  14.6779670  50.5696660  55.1297970  14.4517250  49.8527100  55.7222610
  14.2875870  50.3209100  54.2919720  14.2595920  48.4868600  56.7912130
  13.9717620  48.9481290  57.5790010  15.0548090  48.0266370  57.0596350
   6.4764320  51.9794720  56.7216100   6.4674420  52.7124410  56.1060610
   5.5562680  51.7326300  56.8143060  11.6503750  41.3660430  67.1419750
  12.0184570  40.5455640  67.4699320  10.7901950  41.4262320  67.5575400
  15.0165780  40.3217370  57.9507310  14.3878940  40.4263040  57.2365540
  14.5217700  40.5414150  58.7401190   9.4623920  52.0422960  55.3841290
   9.5635900  51.8386950  54.4543270   8.5625660  51.7881240  55.5889070
   6.9849810  42.6003320  59.3665190   6.2765960  43.0689660  59.8078800
   7.2694290  41.9425330  60.0010380   8.6105740  44.0200020  67.3657720
   9.1090990  44.4945840  68.0309570   8.7528690  43.0963540  67.5727750
  11.0165240  39.3253980  60.8060980  10.8933020  39.3440110  59.8570490
  11.9649800  39.3732920  60.9259380   8.1042030  54.5609280  60.0788960
   8.3583530  54.5230670  59.1568330   7.1554510  54.4342610  60.0717210
   5.1884830  40.9088400  56.7415900   6.0375360  41.3458550  56.6756090
   4.8216100  41.2208660  57.5687960  15.8172600  40.2367980  68.2086110
  15.3146200  40.9773380  68.5479920  16.6329260  40.6251980  67.8922900
  14.1094610  45.4801160  61.6547470  13.1684750  45.4951390  61.8295160
  14.4238680  44.6937120  62.1007770   4.0876250  47.1620760  55.2151430
   4.8539520  47.0502120  55.7776860   4.1650940  46.4658730  54.5628200
   2.7823010  44.5945830  55.8984320   2.8626600  43.6473340  56.0101720
   3.6742760  44.9252710  56.0044980  16.1120190  52.6510010  63.3301730
  16.2367610  53.4741180  63.8025540  16.9785750  52.4400740  62.9825880
   3.5837720  54.7441220  63.0018860   4.3200200  54.1956680  63.2727430
   3.9678640  55.6097230  62.8624850   6.6940030  53.9171530  54.8244430
   7.4868640  54.2060360  54.3726220   6.1744380  53.4863700  54.1456910
  15.7470200  53.1441660  56.2481170  15.4611710  52.7306800  55.4335350
  15.5489750  54.0729370  56.1281690   7.2117430  49.1374940  54.6886780
   7.1068070  48.5227290  55.4148160   7.0441650  48.6140830  53.9049790
  10.4520160  48.1994970  55.2928770   9.9030260  48.6464270  55.9371510
  11.0739420  47.6944220  55.8166440   6.1195280  47.1585890  57.1894070
   6.5411700  46.9925760  58.0325460   6.2446120  46.3486120  56.6949210
   8.6322920  46.1823500  54.4371170   9.1528580  45.4672520  54.0712320
   9.2791320  46.8209370  54.7371680   7.5356440  38.6618050  67.1089730
   7.0873740  38.6842310  66.2635280   6.9021640  38.2637070  67.7060030
   7.9415990  47.5572380  67.7302170   8.3604100  48.4005110  67.5578410
   7.0224620  47.6944420  67.5008950  12.6167790  45.8425750  67.6902520
  12.0903010  46.3668370  67.0867660  12.9599130  46.4753140  68.3212250
   5.0154180  43.2319120  54.1352230   4.8143240  42.3686480  54.4965570
   4.8446230  43.1452480  53.1973830   5.7923410  53.8625390  68.8459900
   5.2544500  54.5871450  68.5268600   6.0457370  53.3855730  68.0557240
  12.4942490  38.0427350  56.6639110  12.7744780  37.1995250  57.0198530
  11.7208220  38.2750460  57.1777860   3.8136980  40.3319740  54.1230110
   4.1162880  40.3387170  53.2149260   4.5531570  39.9817600  54.6197770
   7.0321910  39.2754360  55.1086310   6.6843910  38.5978350  54.5288760
   7.2334680  38.8143870  55.9229700   9.1970950  54.2635110  56.7272910
  10.0921740  54.6020080  56.7491670   9.2288580  53.5414520  56.0997190
   2.8367110  49.6362160  54.9559910   3.2741980  50.1791830  55.6117490
   3.3214840  48.8109110  54.9656250   4.6474830  50.7560200  60.0682140
   4.3470370  50.6325170  60.9686050   4.5412320  49.8968790  59.6597870
  17.4166750  50.5356600  54.7708820  16.5859710  50.6033250  55.2416050
  17.5938580  51.4260720  54.4675680  16.8723210  47.2804080  57.2743020
  17.6342120  47.8500730  57.3802710  16.8877580  46.7131280  58.0451330
  17.8783180  48.1354180  62.1184950  18.2492010  47.3521500  61.7120920
  18.5185110  48.8243280  61.9402250  14.8616940  49.5190760  67.5315270
  14.0476780  49.9487920  67.7941060  15.2691140  50.1309170  66.9184320
  16.9242380  47.5738450  54.4315540  17.1991220  48.4817330  54.3034760
  16.7353120  47.5100980  55.3677530  13.3217990  40.5983300  55.7269170
  13.7402870  40.4114280  54.8865830  13.0154050  39.7462350  56.0372100
  16.8207720  45.5107440  59.4244970  16.4451320  44.7435370  58.9926260
  16.0910840  45.8930140  59.9119900  16.2107340  44.6578960  69.0584490
  15.9793430  44.4291710  68.1582440  16.4711890  45.5778510  69.0129380
  16.0958680  43.7364930  62.7252210  16.6196160  43.2427580  62.0942380
  16.6818100  43.8715290  63.4699780  16.2748400  43.8204800  66.2471760
  15.3251110  43.7868340  66.3616750  16.4561410  44.7304910  66.0121530
   1.7767000  38.1245810  54.3973040   2.4995130  38.6654750  54.7154260
   2.0491520  37.8509230  53.5214580  15.5858650  42.9938280  58.6644620
  16.0817770  42.7609150  59.4493500  15.3874720  42.1550120  58.2482260
  17.0145810  41.6299230  61.1982300  16.9045090  41.4755270  62.1364570
  17.7753400  41.1020170  60.9557710  15.3611530  37.5693360  67.6565300
  15.9983750  38.1827500  68.0224490  15.5086420  37.6054020  66.7114530
  17.9036080  39.4607150  54.4388440  18.8285390  39.3288330  54.2306730
  17.8811870  39.5399970  55.3924890  17.9774570  40.2317810  57.0645150
  17.1826070  40.1662930  57.5938060  18.1817850  41.1668450  57.0530500
  14.9192990  54.2709360  61.0583540  15.5152060  53.9493930  60.3817960
  15.1771140  53.7981180  61.8496810   6.5261590  52.2586860  66.8083890
   6.2852950  52.5261420  65.9214410   7.4664230  52.4292590  66.8634750
  17.7865750  54.2781240  67.6094530  17.2924030  54.6750110  66.8921660
  17.1779040  53.6530450  68.0031810   2.6643590  53.6489520  68.3271950
   2.0703910  53.5174220  69.0661990   2.6567430  52.8127660  67.8614050
  12.1098610  36.9421750  66.5301980  11.2358450  37.2756860  66.3274910
  12.0009360  36.4694930  67.3553850  13.0170590  39.1492620  67.9143700
  12.6883950  38.3344380  67.5345430  13.9652890  39.1062430  67.7909390
  15.4705200  54.9204660  64.8881270  15.0108170  55.6720470  64.5139290
  14.8417660  54.2011130  64.8296070   5.9000920  53.2292900  64.0629400
   6.4165940  52.6180260  63.5377660   6.5498300  53.7321680  64.5540410
   8.6396420  54.1201390  64.8898380   8.9274230  53.8655690  64.0131390
   9.1519640  53.5678750  65.4803950   9.8573430  37.8591590  65.4694890
   9.0745220  38.3337090  65.7491650   9.5636360  36.9546420  65.3608070
  14.4094500  38.5614690  63.5143980  14.8502590  38.5059790  62.6665580
  14.1402090  39.4772700  63.5854160  16.2733070  38.1929930  61.5252800
  16.2121470  37.2491150  61.3783820  17.0525100  38.3010020  62.0706260
   7.7427650  40.2778340  60.9810920   6.9302160  39.9035230  60.6406800
   8.2469290  39.5223420  61.2832110  12.2452630  36.9420790  62.2193990
  12.8482000  37.5141000  62.6942510  11.5045620  37.5060230  61.9967890
  15.3887230  37.3442350  57.4934270  15.5837860  38.2425800  57.7601700
  14.6017100  37.1129430  57.9867220   3.5738990  38.6903120  56.5310580
   4.1031750  37.9032920  56.4018530   4.2067310  39.3694310  56.7646110
   5.7676830  38.4278260  59.5855970   5.1379570  37.7265570  59.7526100
   5.2281970  39.1882390  59.3689130  16.9413840  54.5843060  59.2540830
  17.1166030  53.8980800  58.6101750  16.2435410  55.1090110  58.8617500
   4.7841490  54.9737900  56.8076140   5.5160310  54.6897180  56.2600030
   5.0435160  54.7351180  57.6975520   3.9456280  51.0902630  56.8122470
   3.3165160  51.5587730  57.3608300   4.0604110  50.2451850  57.2468660
  11.4006000  45.1408290  42.9623670  11.3200050  44.2262900  42.6915380
  10.9870420  45.6375360  42.2563380   9.5324040  46.9187310  44.8432940
   8.7566140  46.4387750  45.1331510  10.1836970  46.2392960  44.6689100
   3.5489870  47.2307120  45.7208700   2.7174750  46.9755830  46.1205210
   4.1570850  47.3017890  46.4566620  13.5531470  51.3247500  43.6232070
  13.0913000  50.5534740  43.9519240  14.3657020  51.3513570  44.1284520
   3.5291130  51.2647210  45.9166720   3.8319170  50.3744950  45.7376940
   4.2734720  51.8217430  45.6888970   9.7794780  53.6105510  43.2436060
   9.1606220  54.0663010  42.6730500  10.6346560  53.7656970  42.8425760
   8.9733030  49.5944500  44.8503100   8.9041310  48.6534440  44.6892230
   9.7352890  49.6845910  45.4225670  10.0038200  42.4014880  45.0772030
  10.3803020  41.5286760  44.9645700   9.9057710  42.7373580  44.1862470
   4.1343210  40.7740510  40.5389470   4.2409960  41.6744240  40.8458230
   3.2235570  40.7258480  40.2484120  13.7862320  39.8965320  42.0100370
  14.6071940  39.4061890  42.0525850  13.8196400  40.4862980  42.7632210
   5.9750940  43.7426880  44.8714650   6.4829160  44.2407850  45.5119670
   6.5064180  42.9662080  44.6954010  18.0761870  41.9132070  48.5744000
  17.3714040  42.3013780  48.0559110  18.3419790  42.6082360  49.1764930
   4.2587040  38.3825440  49.1378070   4.2605480  38.8997830  48.3323970
   3.4291350  37.9055620  49.1148000  10.6458130  48.4944750  40.6367970
  10.0275400  48.9594200  40.0730690  11.1581380  49.1872230  41.0537480
   5.5089890  48.0220620  47.3151570   5.1759270  48.6489540  47.9572640
   5.6856570  48.5482500  46.5353240  14.0223800  41.8365700  44.7827910
  13.3179370  42.1250590  45.3631020  14.3835960  42.6465810  44.4227470
   3.9402370  40.0935400  47.1448520   4.2819180  40.9377450  46.8502390
   3.0018180  40.2419140  47.2613860   4.7208990  49.9901420  49.1300750
   5.3382990  50.6652500  48.8485200   3.8602110  50.3989400  49.0388250
  15.6386580  51.4540830  47.0455390  14.9550100  52.1239940  47.0372060
  16.1780870  51.6521480  46.2800250  17.0910720  41.2820490  45.1737120
  16.1435630  41.3159470  45.3052550  17.4160710  42.0959440  45.5586480
   7.6230260  37.5817670  43.4693110   7.9305240  37.0264560  42.7528610
   6.6930960  37.7162130  43.2866100  13.1745320  53.2984960  45.7600570
  13.1872480  52.8947250  44.8922830  12.6220540  54.0732250  45.6562000
  14.4690740  50.0201180  40.8490740  14.3587070  49.0775510  40.9740160
  14.4658990  50.3816820  41.7353500  12.5730760  48.2014800  47.0883180
  12.9899550  47.9874910  46.2536640  13.2970580  48.4587590  47.6591800
  10.0111020  45.6466500  40.2053230   9.0840300  45.5803880  40.4341700
  10.1635840  46.5846630  40.0908470   9.9980100  41.9183500  37.2020390
   9.0583770  42.0797460  37.2872850  10.3163360  42.6369180  36.6556380
  16.5192860  46.6002020  47.1799420  15.6911490  46.6695110  46.7049550
  17.1143340  47.1856330  46.7115250  14.0408310  47.2086800  40.7088480
  13.4220730  46.8706350  40.0614780  14.0232760  46.5646560  41.4167670
  13.4834870  43.3871340  48.1254290  13.0706050  44.2125050  48.3794280
  12.7510820  42.8016380  47.9330650   5.6167660  46.1731240  42.9872960
   5.2124660  45.4608490  42.4918860   5.7030780  45.8284480  43.8761000
   6.0849360  49.8598800  45.1512170   5.7877650  49.2544270  44.4719950
   7.0349180  49.8976110  45.0401530   4.3296280  42.9474450  46.7672000
   4.8810870  43.0569790  45.9925250   4.8439790  43.3212050  47.4827230
  14.1734970  53.4330670  48.8135270  13.6965530  54.2402860  48.6207880
  13.4896760  52.7809000  48.9661480   5.1767790  49.5980490  51.8019970
   4.2796320  49.8220460  52.0493370   5.2020660  49.7215430  50.8531370
  12.2173010  46.4473610  37.7161230  12.6566290  45.6096040  37.5699050
  12.9301430  47.0803010  37.8025370   4.0039010  46.4693810  50.3777340
   3.8646780  47.3416610  50.7464740   3.1220370  46.1266620  50.2325280
  10.3268390  51.3869680  41.6842470  10.7664300  52.1294010  41.2697860
  10.2655280  51.6296250  42.6081430   5.8019360  52.4115510  52.5862490
   5.7734790  52.8158460  51.7190920   5.6384330  51.4825870  52.4234090
  15.7990150  37.7016420  36.0302270  15.4862810  37.7943250  36.9301340
  16.5602620  38.2797450  35.9799700   2.3172290  45.0676220  40.4879610
   2.1969890  45.7938310  39.8760880   2.0073180  44.2979130  40.0107520
  17.7534180  53.1942610  53.8826660  18.2293900  53.6725500  54.5615740
  18.3741340  53.1260100  53.1572160  17.1567430  50.3855460  51.0426670
  17.2830490  50.1467340  50.1243850  17.1988810  49.5540000  51.5148750
  11.0184170  54.0883460  49.6121480  11.5328840  53.9991470  50.4143910
  10.1753250  54.4343160  49.9049390  12.9938570  54.3738800  39.0405480
  12.8339710  54.0841740  39.9387310  12.8285280  53.5978930  38.5050710
   5.4726950  54.1537330  40.8177100   5.2969430  53.2372870  40.6044900
   4.6182690  54.5124620  41.0574900  12.6964700  51.8826360  37.6003480
  12.0029860  51.8803650  36.9405760  13.4387560  51.4585680  37.1697650
  12.2614630  53.5089070  41.6751970  12.7171580  52.7278450  41.9890590
  12.6007150  54.2195890  42.2193150  17.0091440  42.4387920  52.0076410
  16.3935710  42.9467590  51.4791870  16.6887860  41.5386250  51.9502350
   4.7835950  38.4111290  43.8703280   4.3404100  39.1920830  43.5387800
   5.3420940  38.7341180  44.5774220   9.0705760  41.2779810  49.4738600
   8.6085130  41.4862830  50.2858540   8.6683870  40.4639160  49.1709270
  14.0710270  42.4988760  50.6035260  13.2203860  42.1994510  50.9244330
  13.9112060  42.7430770  49.6919080  11.1659980  43.9990510  52.7034050
  11.4913390  43.1654260  52.3636280  11.9540310  44.5219030  52.8512380
   7.8994770  38.0321990  38.7509110   7.2748950  38.0281860  39.4762420
   7.8124890  37.1652950  38.3545080   6.8211850  38.9558620  45.7292880
   7.1184180  39.8621450  45.6484900   7.3697410  38.4677400  45.1152450
   4.5750170  43.5344860  41.5984530   4.3491090  43.3182030  42.5031150
   3.7942700  43.9673320  41.2530500  11.8047930  43.5408230  40.1975180
  11.2056820  44.2644030  40.0138800  12.3527540  43.4785010  39.4151630
   7.0149380  44.4330440  52.2644800   6.9192980  43.4925170  52.1145200
   7.8581360  44.6545510  51.8692870  10.4112800  42.1771770  42.2278460
  10.8042370  42.4943970  41.4147150  10.7729650  41.2983650  42.3422980
   8.7204970  40.9279080  53.4875320   8.0303290  40.7351280  54.1221410
   9.4637270  41.2113720  54.0199620  10.9967940  44.7677520  46.3229240
  10.2649060  45.2764330  46.6719340  10.5992280  43.9507500  46.0218020
   7.4345330  41.4431720  44.7281730   7.4381390  41.0021670  43.8786270
   8.3296450  41.7649050  44.8353550   3.2847710  41.3258210  43.6875940
   2.9447760  41.8033440  44.4442990   2.5225030  40.8723330  43.3277040
   7.4965480  42.4443800  37.7188490   7.6178300  42.4030280  38.6674310
   7.1113990  43.3067950  37.5635220  11.4593850  40.2211200  45.7352180
  11.4766590  40.6719850  46.5794030  11.2109430  39.3216840  45.9485620
   6.5086980  44.7544940  37.1171790   5.9403880  44.3063190  36.4907700
   7.2175980  45.1137720  36.5836940  14.8864600  37.6343380  51.5738560
  15.2110370  36.9033040  52.0996540  14.9221110  37.3157020  50.6719550
   7.7353300  45.5033500  46.4747140   8.1023430  45.0292070  47.2208480
   7.5458360  46.3775070  46.8155480   5.5252670  44.5442140  48.7931350
   5.2209740  45.4234120  49.0181710   6.4799130  44.6041930  48.8288790
   4.0534460  48.7503130  39.3898200   3.2796720  48.2100750  39.2296920
   4.7829090  48.2309740  39.0515960  14.8122440  47.7468490  45.1824590
  15.5321560  48.2423780  44.7920700  14.6104260  47.0686380  44.5378460
  10.2732380  39.1406450  39.3253980   9.4596990  38.6419620  39.2499290
  10.0794330  39.9804700  38.9090330  10.1941240  47.8177550  51.0693590
  10.1278550  46.8973220  50.8151180   9.5646380  47.9152990  51.7838230
  12.9880770  43.5126100  37.6216140  13.8760390  43.8243330  37.4467480
  12.9585860  42.6398350  37.2296720   4.0971860  48.4183510  43.0277010
   4.6150530  47.6151770  42.9733900   3.6455880  48.3562650  43.8693840
   8.9841360  49.6849790  38.3004310   9.3257060  50.4292020  37.8047630
   8.1554070  49.9980910  38.6629140   4.7829520  45.8429120  52.8242260
   4.4829660  45.9886300  51.9270080   5.5540760  45.2834410  52.7315650
  10.1257970  50.6398120  50.8197390  10.1402510  49.7079080  50.6016300
   9.4183070  50.7257880  51.4587160  15.2595040  44.8237940  37.0896000
  15.1758760  45.2552160  36.2392440  15.9789230  45.2836290  37.5222820
  16.3369180  47.2805460  50.1665970  15.6117370  47.8734240  49.9695360
  16.8644640  47.2729000  49.3679340  16.2882290  51.6780200  39.8178130
  15.6458450  51.0235820  40.0921850  15.9012950  52.0835290  39.0418800
  11.8668770  49.0065630  43.6649820  12.2192590  48.4093760  43.0051190
  10.9831100  48.6809860  43.8358070   7.9532050  49.7663320  41.0720230
   8.6403180  50.3132530  41.4527820   7.1664470  50.3104050  41.1069840
   7.2559260  46.7709350  40.6845590   7.7122040  47.5814600  40.9105780
   6.9047470  46.4532490  41.5164080   9.5591870  52.2815690  47.9137890
  10.2034090  52.4875070  48.5911310   9.9221310  51.5204090  47.4608740
   3.1571040  37.1147000  41.1568110   3.0285670  37.1064900  42.1053030
   2.3333060  37.4530090  40.8059120  10.8323950  50.2848040  46.6315340
  11.4746180  49.5841200  46.7447510  11.3573300  51.0646480  46.4512230
  14.6779670  50.5696660  36.3554480  14.4517250  49.8527100  36.9479120
  14.2875870  50.3209100  35.5176230  12.6061570  51.0842940  49.8351400
  12.9417810  51.6709630  50.5129320  11.6861910  50.9535650  50.0649190
  14.2595920  48.4868600  38.0168640  13.9717620  48.9481290  38.8046520
  15.0548090  48.0266370  38.2852860   8.4350150  51.1334270  53.0039460
   8.1147020  50.4143510  53.5485150   7.7608510  51.8089340  53.0775520
   6.4764320  51.9794720  37.9472610   6.4674420  52.7124410  37.3317120
   5.5562680  51.7326300  38.0399570  11.6503750  41.3660430  48.3676260
  12.0184570  40.5455640  48.6955830  10.7901950  41.4262320  48.7831910
  15.0165780  40.3217370  39.1763820  14.3878940  40.4263040  38.4622050
  14.5217700  40.5414150  39.9657700   9.4623920  52.0422960  36.6097800
   9.5635900  51.8386950  35.6799780   8.5625660  51.7881240  36.8145580
   6.9849810  42.6003320  40.5921700   6.2765960  43.0689660  41.0335310
   7.2694290  41.9425330  41.2266890   8.6105740  44.0200020  48.5914230
   9.1090990  44.4945840  49.2566080   8.7528690  43.0963540  48.7984260
  11.0165240  39.3253980  42.0317490  10.8933020  39.3440110  41.0827000
  11.9649800  39.3732920  42.1515890   8.1042030  54.5609280  41.3045470
   8.3583530  54.5230670  40.3824840   7.1554510  54.4342610  41.2973720
   5.1884830  40.9088400  37.9672410   6.0375360  41.3458550  37.9012600
   4.8216100  41.2208660  38.7944470  15.8172600  40.2367980  49.4342620
  15.3146200  40.9773380  49.7736430  16.6329260  40.6251980  49.1179410
  14.1094610  45.4801160  42.8803980  13.1684750  45.4951390  43.0551670
  14.4238680  44.6937120  43.3264280   4.0876250  47.1620760  36.4407940
   4.8539520  47.0502120  37.0033370   4.1650940  46.4658730  35.7884710
   2.7823010  44.5945830  37.1240830   2.8626600  43.6473340  37.2358230
   3.6742760  44.9252710  37.2301490  16.1120190  52.6510010  44.5558240
  16.2367610  53.4741180  45.0282050  16.9785750  52.4400740  44.2082390
   3.5837720  54.7441220  44.2275370   4.3200200  54.1956680  44.4983940
   3.9678640  55.6097230  44.0881360   2.5896000  53.9287290  53.4160950
   3.3908730  54.2499340  53.8296350   2.0747820  53.5682870  54.1380860
   6.6940030  53.9171530  36.0500940   7.4868640  54.2060360  35.5982730
   6.1744380  53.4863700  35.3713420  11.4260630  50.0367160  53.3636360
  10.8198790  50.0598760  52.6232110  11.1214740  49.3050200  53.9003610
  12.8561000  53.7647450  51.9745770  13.8082750  53.6805470  51.9246010
  12.7089220  54.4289160  52.6479560  15.7470200  53.1441660  37.4737680
  15.4611710  52.7306800  36.6591860  15.5489750  54.0729370  37.3538200
   7.2117430  49.1374940  35.9143290   7.1068070  48.5227290  36.6404670
   7.0441650  48.6140830  35.1306300   7.3631750  47.8231740  51.8932520
   6.5977420  48.3916740  51.8087190   7.5447710  47.5307950  51.0000750
  10.4520160  48.1994970  36.5185280   9.9030260  48.6464270  37.1628020
  11.0739420  47.6944220  37.0422950  14.5055100  49.5537070  52.4507540
  15.2464570  49.8912830  51.9475000  13.7427780  49.7229130  51.8977310
   2.3416890  44.5590340  53.2547070   2.3822230  44.2604210  54.1632300
   3.1962390  44.9597950  53.0954590   6.1195280  47.1585890  38.4150580
   6.5411700  46.9925760  39.2581970   6.2446120  46.3486120  37.9205720
   4.2822700  43.1382440  51.2221560   3.7519160  42.6473390  50.5944900
   4.9510770  43.5666640  50.6879490   8.6322920  46.1823500  35.6627680
   9.1528580  45.4672520  35.2968830   9.2791320  46.8209370  35.9628190
  13.1800760  47.6051900  50.9862750  13.5941780  47.7596980  51.8353170
  12.2451760  47.7307120  51.1488530  13.6522930  44.9448060  52.9901900
  14.2343700  44.1900380  52.9022380  13.8284700  45.4755500  52.2133380
   4.7695000  40.1044810  51.3018850   4.6751870  39.4865560  50.5769720
   4.1892390  40.8311100  51.0748760   7.5356440  38.6618050  48.3346240
   7.0873740  38.6842310  47.4891790   6.9021640  38.2637070  48.9316540
   7.9415990  47.5572380  48.9558680   8.3604100  48.4005110  48.7834920
   7.0224620  47.6944420  48.7265460  10.2779890  45.2888560  50.3396520
  10.3976100  44.6929700  51.0791360  11.1373890  45.3258250  49.9197820
  12.6167790  45.8425750  48.9159030  12.0903010  46.3668370  48.3124170
  12.9599130  46.4753140  49.5468760   5.0154180  43.2319120  35.3608740
   4.8143240  42.3686480  35.7222080   4.8446230  43.1452480  34.4230340
   5.7923410  53.8625390  50.0716410   5.2544500  54.5871450  49.7525110
   6.0457370  53.3855730  49.2813750   7.0448660  41.8309910  51.5972340
   7.6348350  41.5225760  52.2850160   6.2268900  41.3589660  51.7532240
  11.8642090  41.4475720  51.8305360  11.1757610  40.7857260  51.7655350
  12.5848110  41.0013990  52.2753820  12.4942490  38.0427350  37.8895620
  12.7744780  37.1995250  38.2455040  11.7208220  38.2750460  38.4034370
   3.8136980  40.3319740  35.3486620   4.1162880  40.3387170  34.4405770
   4.5531570  39.9817600  35.8454280   8.6485620  55.0976600  50.3303060
   8.5744320  56.0011740  50.6375430   7.7464460  54.7788500  50.3025130
   7.0321910  39.2754360  36.3342820   6.6843910  38.5978350  35.7545270
   7.2334680  38.8143870  37.1486210   9.1970950  54.2635110  37.9529420
  10.0921740  54.6020080  37.9748180   9.2288580  53.5414520  37.3253700
   2.8367110  49.6362160  36.1816420   3.2741980  50.1791830  36.8374000
   3.3214840  48.8109110  36.1912760   4.6474830  50.7560200  41.2938650
   4.3470370  50.6325170  42.1942560   4.5412320  49.8968790  40.8854380
  16.1765300  52.7938780  50.6595620  15.5767290  52.8531340  49.9159540
  16.3059200  51.8543760  50.7892470  17.4166750  50.5356600  35.9965330
  16.5859710  50.6033250  36.4672560  17.5938580  51.4260720  35.6932190
  16.8723210  47.2804080  38.4999530  17.6342120  47.8500730  38.6059220
  16.8877580  46.7131280  39.2707840  17.8783180  48.1354180  43.3441460
  18.2492010  47.3521500  42.9377430  18.5185110  48.8243280  43.1658760
  14.8616940  49.5190760  48.7571780  14.0476780  49.9487920  49.0197570
  15.2691140  50.1309170  48.1440830  16.9242380  47.5738450  35.6572050
  17.1991220  48.4817330  35.5291270  16.7353120  47.5100980  36.5934040
  13.3217990  40.5983300  36.9525680  13.7402870  40.4114280  36.1122340
  13.0154050  39.7462350  37.2628610  16.8207720  45.5107440  40.6501480
  16.4451320  44.7435370  40.2182770  16.0910840  45.8930140  41.1376410
  16.2107340  44.6578960  50.2841000  15.9793430  44.4291710  49.3838950
  16.4711890  45.5778510  50.2385890  14.6495410  39.8835390  53.0620700
  15.5265590  39.8918790  53.4454700  14.6616250  39.1466230  52.4513050
  16.0958680  43.7364930  43.9508720  16.6196160  43.2427580  43.3198890
  16.6818100  43.8715290  44.6956290  16.2748400  43.8204800  47.4728270
  15.3251110  43.7868340  47.5873260  16.4561410  44.7304910  47.2378040
   1.7767000  38.1245810  35.6229550   2.4995130  38.6654750  35.9410770
   2.0491520  37.8509230  34.7471090  15.5858650  42.9938280  39.8901130
  16.0817770  42.7609150  40.6750010  15.3874720  42.1550120  39.4738770
  17.0145810  41.6299230  42.4238810  16.9045090  41.4755270  43.3621080
  17.7753400  41.1020170  42.1814220  15.3611530  37.5693360  48.8821810
  15.9983750  38.1827500  49.2481000  15.5086420  37.6054020  47.9371040
  17.9036080  39.4607150  35.6644950  18.8285390  39.3288330  35.4563240
  17.8811870  39.5399970  36.6181400  17.9774570  40.2317810  38.2901660
  17.1826070  40.1662930  38.8194570  18.1817850  41.1668450  38.2787010
  14.9192990  54.2709360  42.2840050  15.5152060  53.9493930  41.6074470
  15.1771140  53.7981180  43.0753320   2.8255560  50.7027270  52.4330680
   2.7825190  50.3320180  53.3145140   2.9566570  51.6404840  52.5732500
   6.5261590  52.2586860  48.0340400   6.2852950  52.5261420  47.1470920
   7.4664230  52.4292590  48.0891260   8.7316010  38.7219550  51.7896910
   8.6704900  39.3141380  52.5392320   9.6716390  38.6145510  51.6447170
  11.3690570  38.3789610  51.4289200  11.9830980  38.6968900  50.7670280
  11.9140130  37.8938200  52.0485060  17.7865750  54.2781240  48.8351040
  17.2924030  54.6750110  48.1178170  17.1779040  53.6530450  49.2288320
   1.8911830  37.0583870  51.5428260   2.4394820  36.8771920  50.7794370
   1.9567140  36.2677980  52.0784570   2.6643590  53.6489520  49.5528460
   2.0703910  53.5174220  50.2918500   2.6567430  52.8127660  49.0870560
  12.1098610  36.9421750  47.7558490  11.2358450  37.2756860  47.5531420
  12.0009360  36.4694930  48.5810360  13.0170590  39.1492620  49.1400210
  12.6883950  38.3344380  48.7601940  13.9652890  39.1062430  49.0165900
  15.4705200  54.9204660  46.1137780  15.0108170  55.6720470  45.7395800
  14.8417660  54.2011130  46.0552580   5.9000920  53.2292900  45.2885910
   6.4165940  52.6180260  44.7634170   6.5498300  53.7321680  45.7796920
   8.6396420  54.1201390  46.1154890   8.9274230  53.8655690  45.2387900
   9.1519640  53.5678750  46.7060460   9.8573430  37.8591590  46.6951400
   9.0745220  38.3337090  46.9748160   9.5636360  36.9546420  46.5864580
  14.4094500  38.5614690  44.7400490  14.8502590  38.5059790  43.8922090
  14.1402090  39.4772700  44.8110670  16.2733070  38.1929930  42.7509310
  16.2121470  37.2491150  42.6040330  17.0525100  38.3010020  43.2962770
   7.7427650  40.2778340  42.2067430   6.9302160  39.9035230  41.8663310
   8.2469290  39.5223420  42.5088620  12.2452630  36.9420790  43.4450500
  12.8482000  37.5141000  43.9199020  11.5045620  37.5060230  43.2224400
  15.3887230  37.3442350  38.7190780  15.5837860  38.2425800  38.9858210
  14.6017100  37.1129430  39.2123730   3.5738990  38.6903120  37.7567090
   4.1031750  37.9032920  37.6275040   4.2067310  39.3694310  37.9902620
   5.7676830  38.4278260  40.8112480   5.1379570  37.7265570  40.9782610
   5.2281970  39.1882390  40.5945640   8.7068780  55.0417490  53.4823090
   9.6336090  54.8061760  53.5259050   8.6919210  55.8689490  53.0009120
  16.9413840  54.5843060  40.4797340  17.1166030  53.8980800  39.8358260
  16.2435410  55.1090110  40.0874010   5.8932390  37.7062240  53.2464970
   5.6116660  38.2095840  52.4825790   6.2752090  36.9083990  52.8807100
   4.7841490  54.9737900  38.0332650   5.5160310  54.6897180  37.4856540
   5.0435160  54.7351180  38.9232030   3.9456280  51.0902630  38.0378980
   3.3165160  51.5587730  38.5864810   4.0604110  50.2451850  38.4725170
  12.4947850  37.1215820  53.8245440  12.3813300  37.4410430  54.7196960
  13.3117590  37.5228330  53.5282720  15.2746340  54.2687350  53.3064130
  16.0671660  53.7736580  53.0990090  15.5679490  54.9477490  53.9139740
  11.4006000  45.1408290  24.1880180  11.3200050  44.2262900  23.9171890
  10.9870420  45.6375360  23.4819890   9.5324040  46.9187310  26.0689450
   8.7566140  46.4387750  26.3588020  10.1836970  46.2392960  25.8945610
   3.5489870  47.2307120  26.9465210   2.7174750  46.9755830  27.3461720
   4.1570850  47.3017890  27.6823130  13.5531470  51.3247500  24.8488580
  13.0913000  50.5534740  25.1775750  14.3657020  51.3513570  25.3541030
   3.5291130  51.2647210  27.1423230   3.8319170  50.3744950  26.9633450
   4.2734720  51.8217430  26.9145480   9.7794780  53.6105510  24.4692570
   9.1606220  54.0663010  23.8987010  10.6346560  53.7656970  24.0682270
   8.9733030  49.5944500  26.0759610   8.9041310  48.6534440  25.9148740
   9.7352890  49.6845910  26.6482180  10.0038200  42.4014880  26.3028540
  10.3803020  41.5286760  26.1902210   9.9057710  42.7373580  25.4118980
   4.1343210  40.7740510  21.7645980   4.2409960  41.6744240  22.0714740
   3.2235570  40.7258480  21.4740630  13.7862320  39.8965320  23.2356880
  14.6071940  39.4061890  23.2782360  13.8196400  40.4862980  23.9888720
   5.9750940  43.7426880  26.0971160   6.4829160  44.2407850  26.7376180
   6.5064180  42.9662080  25.9210520  18.0761870  41.9132070  29.8000510
  17.3714040  42.3013780  29.2815620  18.3419790  42.6082360  30.4021440
   4.2587040  38.3825440  30.3634580   4.2605480  38.8997830  29.5580480
   3.4291350  37.9055620  30.3404510  10.6458130  48.4944750  21.8624480
  10.0275400  48.9594200  21.2987200  11.1581380  49.1872230  22.2793990
   5.5089890  48.0220620  28.5408080   5.1759270  48.6489540  29.1829150
   5.6856570  48.5482500  27.7609750  14.0223800  41.8365700  26.0084420
  13.3179370  42.1250590  26.5887530  14.3835960  42.6465810  25.6483980
   3.9402370  40.0935400  28.3705030   4.2819180  40.9377450  28.0758900
   3.0018180  40.2419140  28.4870370   4.7208990  49.9901420  30.3557260
   5.3382990  50.6652500  30.0741710   3.8602110  50.3989400  30.2644760
  15.6386580  51.4540830  28.2711900  14.9550100  52.1239940  28.2628570
  16.1780870  51.6521480  27.5056760  17.0910720  41.2820490  26.3993630
  16.1435630  41.3159470  26.5309060  17.4160710  42.0959440  26.7842990
   7.6230260  37.5817670  24.6949620   7.9305240  37.0264560  23.9785120
   6.6930960  37.7162130  24.5122610  13.1745320  53.2984960  26.9857080
  13.1872480  52.8947250  26.1179340  12.6220540  54.0732250  26.8818510
  14.4690740  50.0201180  22.0747250  14.3587070  49.0775510  22.1996670
  14.4658990  50.3816820  22.9610010  12.5730760  48.2014800  28.3139690
  12.9899550  47.9874910  27.4793150  13.2970580  48.4587590  28.8848310
  10.0111020  45.6466500  21.4309740   9.0840300  45.5803880  21.6598210
  10.1635840  46.5846630  21.3164980   9.9980100  41.9183500  18.4276900
   9.0583770  42.0797460  18.5129360  10.3163360  42.6369180  17.8812890
  16.5192860  46.6002020  28.4055930  15.6911490  46.6695110  27.9306060
  17.1143340  47.1856330  27.9371760  14.0408310  47.2086800  21.9344990
  13.4220730  46.8706350  21.2871290  14.0232760  46.5646560  22.6424180
  13.4834870  43.3871340  29.3510800  13.0706050  44.2125050  29.6050790
  12.7510820  42.8016380  29.1587160   5.6167660  46.1731240  24.2129470
   5.2124660  45.4608490  23.7175370   5.7030780  45.8284480  25.1017510
   6.0849360  49.8598800  26.3768680   5.7877650  49.2544270  25.6976460
   7.0349180  49.8976110  26.2658040   4.3296280  42.9474450  27.9928510
   4.8810870  43.0569790  27.2181760   4.8439790  43.3212050  28.7083740
  14.1734970  53.4330670  30.0391780  13.6965530  54.2402860  29.8464390
  13.4896760  52.7809000  30.1917990   5.1767790  49.5980490  33.0276480
   4.2796320  49.8220460  33.2749880   5.2020660  49.7215430  32.0787880
  12.2173010  46.4473610  18.9417740  12.6566290  45.6096040  18.7955560
  12.9301430  47.0803010  19.0281880   4.0039010  46.4693810  31.6033850
   3.8646780  47.3416610  31.9721250   3.1220370  46.1266620  31.4581790
  10.3268390  51.3869680  22.9098980  10.7664300  52.1294010  22.4954370
  10.2655280  51.6296250  23.8337940   5.8019360  52.4115510  33.8119000
   5.7734790  52.8158460  32.9447430   5.6384330  51.4825870  33.6490600
  15.7990150  37.7016420  17.2558780  15.4862810  37.7943250  18.1557850
  16.5602620  38.2797450  17.2056210   2.3172290  45.0676220  21.7136120
   2.1969890  45.7938310  21.1017390   2.0073180  44.2979130  21.2364030
  17.7534180  53.1942610  35.1083170  18.2293900  53.6725500  35.7872250
  18.3741340  53.1260100  34.3828670  17.1567430  50.3855460  32.2683180
  17.2830490  50.1467340  31.3500360  17.1988810  49.5540000  32.7405260
  11.0184170  54.0883460  30.8377990  11.5328840  53.9991470  31.6400420
  10.1753250  54.4343160  31.1305900  12.9938570  54.3738800  20.2661990
  12.8339710  54.0841740  21.1643820  12.8285280  53.5978930  19.7307220
   5.4726950  54.1537330  22.0433610   5.2969430  53.2372870  21.8301410
   4.6182690  54.5124620  22.2831410  12.6964700  51.8826360  18.8259990
  12.0029860  51.8803650  18.1662270  13.4387560  51.4585680  18.3954160
  12.2614630  53.5089070  22.9008480  12.7171580  52.7278450  23.2147100
  12.6007150  54.2195890  23.4449660  17.0091440  42.4387920  33.2332920
  16.3935710  42.9467590  32.7048380  16.6887860  41.5386250  33.1758860
   4.7835950  38.4111290  25.0959790   4.3404100  39.1920830  24.7644310
   5.3420940  38.7341180  25.8030730   9.0705760  41.2779810  30.6995110
   8.6085130  41.4862830  31.5115050   8.6683870  40.4639160  30.3965780
  14.0710270  42.4988760  31.8291770  13.2203860  42.1994510  32.1500840
  13.9112060  42.7430770  30.9175590  11.1659980  43.9990510  33.9290560
  11.4913390  43.1654260  33.5892790  11.9540310  44.5219030  34.0768890
   7.8994770  38.0321990  19.9765620   7.2748950  38.0281860  20.7018930
   7.8124890  37.1652950  19.5801590   6.8211850  38.9558620  26.9549390
   7.1184180  39.8621450  26.8741410   7.3697410  38.4677400  26.3408960
   4.5750170  43.5344860  22.8241040   4.3491090  43.3182030  23.7287660
   3.7942700  43.9673320  22.4787010  11.8047930  43.5408230  21.4231690
  11.2056820  44.2644030  21.2395310  12.3527540  43.4785010  20.6408140
   7.0149380  44.4330440  33.4901310   6.9192980  43.4925170  33.3401710
   7.8581360  44.6545510  33.0949380  10.4112800  42.1771770  23.4534970
  10.8042370  42.4943970  22.6403660  10.7729650  41.2983650  23.5679490
   8.7204970  40.9279080  34.7131830   8.0303290  40.7351280  35.3477920
   9.4637270  41.2113720  35.2456130  10.9967940  44.7677520  27.5485750
  10.2649060  45.2764330  27.8975850  10.5992280  43.9507500  27.2474530
   7.4345330  41.4431720  25.9538240   7.4381390  41.0021670  25.1042780
   8.3296450  41.7649050  26.0610060   3.2847710  41.3258210  24.9132450
   2.9447760  41.8033440  25.6699500   2.5225030  40.8723330  24.5533550
   7.4965480  42.4443800  18.9445000   7.6178300  42.4030280  19.8930820
   7.1113990  43.3067950  18.7891730  11.4593850  40.2211200  26.9608690
  11.4766590  40.6719850  27.8050540  11.2109430  39.3216840  27.1742130
   6.5086980  44.7544940  18.3428300   5.9403880  44.3063190  17.7164210
   7.2175980  45.1137720  17.8093450  14.8864600  37.6343380  32.7995070
  15.2110370  36.9033040  33.3253050  14.9221110  37.3157020  31.8976060
   7.7353300  45.5033500  27.7003650   8.1023430  45.0292070  28.4464990
   7.5458360  46.3775070  28.0411990   5.5252670  44.5442140  30.0187860
   5.2209740  45.4234120  30.2438220   6.4799130  44.6041930  30.0545300
   4.0534460  48.7503130  20.6154710   3.2796720  48.2100750  20.4553430
   4.7829090  48.2309740  20.2772470  14.8122440  47.7468490  26.4081100
  15.5321560  48.2423780  26.0177210  14.6104260  47.0686380  25.7634970
  10.2732380  39.1406450  20.5510490   9.4596990  38.6419620  20.4755800
  10.0794330  39.9804700  20.1346840  10.1941240  47.8177550  32.2950100
  10.1278550  46.8973220  32.0407690   9.5646380  47.9152990  33.0094740
  12.9880770  43.5126100  18.8472650  13.8760390  43.8243330  18.6723990
  12.9585860  42.6398350  18.4553230   4.0971860  48.4183510  24.2533520
   4.6150530  47.6151770  24.1990410   3.6455880  48.3562650  25.0950350
   8.9841360  49.6849790  19.5260820   9.3257060  50.4292020  19.0304140
   8.1554070  49.9980910  19.8885650   4.7829520  45.8429120  34.0498770
   4.4829660  45.9886300  33.1526590   5.5540760  45.2834410  33.9572160
  10.1257970  50.6398120  32.0453900  10.1402510  49.7079080  31.8272810
   9.4183070  50.7257880  32.6843670  15.2595040  44.8237940  18.3152510
  15.1758760  45.2552160  17.4648950  15.9789230  45.2836290  18.7479330
  16.3369180  47.2805460  31.3922480  15.6117370  47.8734240  31.1951870
  16.8644640  47.2729000  30.5935850  16.2882290  51.6780200  21.0434640
  15.6458450  51.0235820  21.3178360  15.9012950  52.0835290  20.2675310
  11.8668770  49.0065630  24.8906330  12.2192590  48.4093760  24.2307700
  10.9831100  48.6809860  25.0614580   7.9532050  49.7663320  22.2976740
   8.6403180  50.3132530  22.6784330   7.1664470  50.3104050  22.3326350
   7.2559260  46.7709350  21.9102100   7.7122040  47.5814600  22.1362290
   6.9047470  46.4532490  22.7420590   9.5591870  52.2815690  29.1394400
  10.2034090  52.4875070  29.8167820   9.9221310  51.5204090  28.6865250
   3.1571040  37.1147000  22.3824620   3.0285670  37.1064900  23.3309540
   2.3333060  37.4530090  22.0315630  10.8323950  50.2848040  27.8571850
  11.4746180  49.5841200  27.9704020  11.3573300  51.0646480  27.6768740
  14.6779670  50.5696660  17.5810990  14.4517250  49.8527100  18.1735630
  14.2875870  50.3209100  16.7432740  12.6061570  51.0842940  31.0607910
  12.9417810  51.6709630  31.7385830  11.6861910  50.9535650  31.2905700
  14.2595920  48.4868600  19.2425150  13.9717620  48.9481290  20.0303030
  15.0548090  48.0266370  19.5109370   8.4350150  51.1334270  34.2295970
   8.1147020  50.4143510  34.7741660   7.7608510  51.8089340  34.3032030
   6.4764320  51.9794720  19.1729120   6.4674420  52.7124410  18.5573630
   5.5562680  51.7326300  19.2656080  11.6503750  41.3660430  29.5932770
  12.0184570  40.5455640  29.9212340  10.7901950  41.4262320  30.0088420
  15.0165780  40.3217370  20.4020330  14.3878940  40.4263040  19.6878560
  14.5217700  40.5414150  21.1914210   9.4623920  52.0422960  17.8354310
   9.5635900  51.8386950  16.9056290   8.5625660  51.7881240  18.0402090
   6.9849810  42.6003320  21.8178210   6.2765960  43.0689660  22.2591820
   7.2694290  41.9425330  22.4523400   8.6105740  44.0200020  29.8170740
   9.1090990  44.4945840  30.4822590   8.7528690  43.0963540  30.0240770
  11.0165240  39.3253980  23.2574000  10.8933020  39.3440110  22.3083510
  11.9649800  39.3732920  23.3772400   8.1042030  54.5609280  22.5301980
   8.3583530  54.5230670  21.6081350   7.1554510  54.4342610  22.5230230
   5.1884830  40.9088400  19.1928920   6.0375360  41.3458550  19.1269110
   4.8216100  41.2208660  20.0200980  15.8172600  40.2367980  30.6599130
  15.3146200  40.9773380  30.9992940  16.6329260  40.6251980  30.3435920
  14.1094610  45.4801160  24.1060490  13.1684750  45.4951390  24.2808180
  14.4238680  44.6937120  24.5520790   4.0876250  47.1620760  17.6664450
   4.8539520  47.0502120  18.2289880   4.1650940  46.4658730  17.0141220
   2.7823010  44.5945830  18.3497340   2.8626600  43.6473340  18.4614740
   3.6742760  44.9252710  18.4558000  16.1120190  52.6510010  25.7814750
  16.2367610  53.4741180  26.2538560  16.9785750  52.4400740  25.4338900
   3.5837720  54.7441220  25.4531880   4.3200200  54.1956680  25.7240450
   3.9678640  55.6097230  25.3137870   2.5896000  53.9287290  34.6417460
   3.3908730  54.2499340  35.0552860   2.0747820  53.5682870  35.3637370
   6.6940030  53.9171530  17.2757450   7.4868640  54.2060360  16.8239240
   6.1744380  53.4863700  16.5969930  11.4260630  50.0367160  34.5892870
  10.8198790  50.0598760  33.8488620  11.1214740  49.3050200  35.1260120
  12.8561000  53.7647450  33.2002280  13.8082750  53.6805470  33.1502520
  12.7089220  54.4289160  33.8736070  15.7470200  53.1441660  18.6994190
  15.4611710  52.7306800  17.8848370  15.5489750  54.0729370  18.5794710
   7.2117430  49.1374940  17.1399800   7.1068070  48.5227290  17.8661180
   7.0441650  48.6140830  16.3562810   7.3631750  47.8231740  33.1189030
   6.5977420  48.3916740  33.0343700   7.5447710  47.5307950  32.2257260
  10.4520160  48.1994970  17.7441790   9.9030260  48.6464270  18.3884530
  11.0739420  47.6944220  18.2679460  14.5055100  49.5537070  33.6764050
  15.2464570  49.8912830  33.1731510  13.7427780  49.7229130  33.1233820
   2.3416890  44.5590340  34.4803580   2.3822230  44.2604210  35.3888810
   3.1962390  44.9597950  34.3211100   6.1195280  47.1585890  19.6407090
   6.5411700  46.9925760  20.4838480   6.2446120  46.3486120  19.1462230
   4.2822700  43.1382440  32.4478070   3.7519160  42.6473390  31.8201410
   4.9510770  43.5666640  31.9136000   8.6322920  46.1823500  16.8884190
   9.1528580  45.4672520  16.5225340   9.2791320  46.8209370  17.1884700
  13.1800760  47.6051900  32.2119260  13.5941780  47.7596980  33.0609680
  12.2451760  47.7307120  32.3745040  13.6522930  44.9448060  34.2158410
  14.2343700  44.1900380  34.1278890  13.8284700  45.4755500  33.4389890
   4.7695000  40.1044810  32.5275360   4.6751870  39.4865560  31.8026230
   4.1892390  40.8311100  32.3005270   7.5356440  38.6618050  29.5602750
   7.0873740  38.6842310  28.7148300   6.9021640  38.2637070  30.1573050
   7.9415990  47.5572380  30.1815190   8.3604100  48.4005110  30.0091430
   7.0224620  47.6944420  29.9521970  10.2779890  45.2888560  31.5653030
  10.3976100  44.6929700  32.3047870  11.1373890  45.3258250  31.1454330
  12.6167790  45.8425750  30.1415540  12.0903010  46.3668370  29.5380680
  12.9599130  46.4753140  30.7725270   5.0154180  43.2319120  16.5865250
   4.8143240  42.3686480  16.9478590   4.8446230  43.1452480  15.6486850
   5.7923410  53.8625390  31.2972920   5.2544500  54.5871450  30.9781620
   6.0457370  53.3855730  30.5070260   7.0448660  41.8309910  32.8228850
   7.6348350  41.5225760  33.5106670   6.2268900  41.3589660  32.9788750
  11.8642090  41.4475720  33.0561870  11.1757610  40.7857260  32.9911860
  12.5848110  41.0013990  33.5010330  12.4942490  38.0427350  19.1152130
  12.7744780  37.1995250  19.4711550  11.7208220  38.2750460  19.6290880
   3.8136980  40.3319740  16.5743130   4.1162880  40.3387170  15.6662280
   4.5531570  39.9817600  17.0710790   8.6485620  55.0976600  31.5559570
   8.5744320  56.0011740  31.8631940   7.7464460  54.7788500  31.5281640
   7.0321910  39.2754360  17.5599330   6.6843910  38.5978350  16.9801780
   7.2334680  38.8143870  18.3742720   9.1970950  54.2635110  19.1785930
  10.0921740  54.6020080  19.2004690   9.2288580  53.5414520  18.5510210
   2.8367110  49.6362160  17.4072930   3.2741980  50.1791830  18.0630510
   3.3214840  48.8109110  17.4169270   4.6474830  50.7560200  22.5195160
   4.3470370  50.6325170  23.4199070   4.5412320  49.8968790  22.1110890
  16.1765300  52.7938780  31.8852130  15.5767290  52.8531340  31.1416050
  16.3059200  51.8543760  32.0148980  17.4166750  50.5356600  17.2221840
  16.5859710  50.6033250  17.6929070  17.5938580  51.4260720  16.9188700
  16.8723210  47.2804080  19.7256040  17.6342120  47.8500730  19.8315730
  16.8877580  46.7131280  20.4964350  17.8783180  48.1354180  24.5697970
  18.2492010  47.3521500  24.1633940  18.5185110  48.8243280  24.3915270
  14.8616940  49.5190760  29.9828290  14.0476780  49.9487920  30.2454080
  15.2691140  50.1309170  29.3697340  16.9242380  47.5738450  16.8828560
  17.1991220  48.4817330  16.7547780  16.7353120  47.5100980  17.8190550
  13.3217990  40.5983300  18.1782190  13.7402870  40.4114280  17.3378850
  13.0154050  39.7462350  18.4885120  16.8207720  45.5107440  21.8757990
  16.4451320  44.7435370  21.4439280  16.0910840  45.8930140  22.3632920
  16.2107340  44.6578960  31.5097510  15.9793430  44.4291710  30.6095460
  16.4711890  45.5778510  31.4642400  14.6495410  39.8835390  34.2877210
  15.5265590  39.8918790  34.6711210  14.6616250  39.1466230  33.6769560
  16.0958680  43.7364930  25.1765230  16.6196160  43.2427580  24.5455400
  16.6818100  43.8715290  25.9212800  16.2748400  43.8204800  28.6984780
  15.3251110  43.7868340  28.8129770  16.4561410  44.7304910  28.4634550
   1.7767000  38.1245810  16.8486060   2.4995130  38.6654750  17.1667280
   2.0491520  37.8509230  15.9727600  15.5858650  42.9938280  21.1157640
  16.0817770  42.7609150  21.9006520  15.3874720  42.1550120  20.6995280
  17.0145810  41.6299230  23.6495320  16.9045090  41.4755270  24.5877590
  17.7753400  41.1020170  23.4070730  15.3611530  37.5693360  30.1078320
  15.9983750  38.1827500  30.4737510  15.5086420  37.6054020  29.1627550
  17.9036080  39.4607150  16.8901460  18.8285390  39.3288330  16.6819750
  17.8811870  39.5399970  17.8437910  17.9774570  40.2317810  19.5158170
  17.1826070  40.1662930  20.0451080  18.1817850  41.1668450  19.5043520
  14.9192990  54.2709360  23.5096560  15.5152060  53.9493930  22.8330980
  15.1771140  53.7981180  24.3009830   2.8255560  50.7027270  33.6587190
   2.7825190  50.3320180  34.5401650   2.9566570  51.6404840  33.7989010
   6.5261590  52.2586860  29.2596910   6.2852950  52.5261420  28.3727430
   7.4664230  52.4292590  29.3147770   8.7316010  38.7219550  33.0153420
   8.6704900  39.3141380  33.7648830   9.6716390  38.6145510  32.8703680
  11.3690570  38.3789610  32.6545710  11.9830980  38.6968900  31.9926790
  11.9140130  37.8938200  33.2741570  17.7865750  54.2781240  30.0607550
  17.2924030  54.6750110  29.3434680  17.1779040  53.6530450  30.4544830
   1.8911830  37.0583870  32.7684770   2.4394820  36.8771920  32.0050880
   1.9567140  36.2677980  33.3041080   2.6643590  53.6489520  30.7784970
   2.0703910  53.5174220  31.5175010   2.6567430  52.8127660  30.3127070
  12.1098610  36.9421750  28.9815000  11.2358450  37.2756860  28.7787930
  12.0009360  36.4694930  29.8066870  13.0170590  39.1492620  30.3656720
  12.6883950  38.3344380  29.9858450  13.9652890  39.1062430  30.2422410
  15.4705200  54.9204660  27.3394290  15.0108170  55.6720470  26.9652310
  14.8417660  54.2011130  27.2809090   5.9000920  53.2292900  26.5142420
   6.4165940  52.6180260  25.9890680   6.5498300  53.7321680  27.0053430
   8.6396420  54.1201390  27.3411400   8.9274230  53.8655690  26.4644410
   9.1519640  53.5678750  27.9316970   9.8573430  37.8591590  27.9207910
   9.0745220  38.3337090  28.2004670   9.5636360  36.9546420  27.8121090
  14.4094500  38.5614690  25.9657000  14.8502590  38.5059790  25.1178600
  14.1402090  39.4772700  26.0367180  16.2733070  38.1929930  23.9765820
  16.2121470  37.2491150  23.8296840  17.0525100  38.3010020  24.5219280
   7.7427650  40.2778340  23.4323940   6.9302160  39.9035230  23.0919820
   8.2469290  39.5223420  23.7345130  12.2452630  36.9420790  24.6707010
  12.8482000  37.5141000  25.1455530  11.5045620  37.5060230  24.4480910
  15.3887230  37.3442350  19.9447290  15.5837860  38.2425800  20.2114720
  14.6017100  37.1129430  20.4380240   3.5738990  38.6903120  18.9823600
   4.1031750  37.9032920  18.8531550   4.2067310  39.3694310  19.2159130
   5.7676830  38.4278260  22.0368990   5.1379570  37.7265570  22.2039120
   5.2281970  39.1882390  21.8202150   8.7068780  55.0417490  34.7079600
   9.6336090  54.8061760  34.7515560   8.6919210  55.8689490  34.2265630
  16.9413840  54.5843060  21.7053850  17.1166030  53.8980800  21.0614770
  16.2435410  55.1090110  21.3130520   5.8932390  37.7062240  34.4721480
   5.6116660  38.2095840  33.7082300   6.2752090  36.9083990  34.1063610
   4.7841490  54.9737900  19.2589160   5.5160310  54.6897180  18.7113050
   5.0435160  54.7351180  20.1488540   3.9456280  51.0902630  19.2635490
   3.3165160  51.5587730  19.8121320   4.0604110  50.2451850  19.6981680
  12.4947850  37.1215820  35.0501950  12.3813300  37.4410430  35.9453470
  13.3117590  37.5228330  34.7539230  15.2746340  54.2687350  34.5320640
  16.0671660  53.7736580  34.3246600  15.5679490  54.9477490  35.1396250
  11.4006000  45.1408290   5.4136690  11.3200050  44.2262900   5.1428400
  10.9870420  45.6375360   4.7076400   9.5324040  46.9187310   7.2945960
   8.7566140  46.4387750   7.5844530  10.1836970  46.2392960   7.1202120
   3.5489870  47.2307120   8.1721720   2.7174750  46.9755830   8.5718230
   4.1570850  47.3017890   8.9079640  13.5531470  51.3247500   6.0745090
  13.0913000  50.5534740   6.4032260  14.3657020  51.3513570   6.5797540
   3.5291130  51.2647210   8.3679740   3.8319170  50.3744950   8.1889960
   4.2734720  51.8217430   8.1401990   9.7794780  53.6105510   5.6949080
   9.1606220  54.0663010   5.1243520  10.6346560  53.7656970   5.2938780
   8.9733030  49.5944500   7.3016120   8.9041310  48.6534440   7.1405250
   9.7352890  49.6845910   7.8738690  10.0038200  42.4014880   7.5285050
  10.3803020  41.5286760   7.4158720   9.9057710  42.7373580   6.6375490
   4.1343210  40.7740510   2.9902490   4.2409960  41.6744240   3.2971250
   3.2235570  40.7258480   2.6997140  13.7862320  39.8965320   4.4613390
  14.6071940  39.4061890   4.5038870  13.8196400  40.4862980   5.2145230
   5.9750940  43.7426880   7.3227670   6.4829160  44.2407850   7.9632690
   6.5064180  42.9662080   7.1467030  18.0761870  41.9132070  11.0257020
  17.3714040  42.3013780  10.5072130  18.3419790  42.6082360  11.6277950
   4.2587040  38.3825440  11.5891090   4.2605480  38.8997830  10.7836990
   3.4291350  37.9055620  11.5661020  10.6458130  48.4944750   3.0880990
  10.0275400  48.9594200   2.5243710  11.1581380  49.1872230   3.5050500
   5.5089890  48.0220620   9.7664590   5.1759270  48.6489540  10.4085660
   5.6856570  48.5482500   8.9866260  14.0223800  41.8365700   7.2340930
  13.3179370  42.1250590   7.8144040  14.3835960  42.6465810   6.8740490
   3.9402370  40.0935400   9.5961540   4.2819180  40.9377450   9.3015410
   3.0018180  40.2419140   9.7126880   4.7208990  49.9901420  11.5813770
   5.3382990  50.6652500  11.2998220   3.8602110  50.3989400  11.4901270
  15.6386580  51.4540830   9.4968410  14.9550100  52.1239940   9.4885080
  16.1780870  51.6521480   8.7313270  17.0910720  41.2820490   7.6250140
  16.1435630  41.3159470   7.7565570  17.4160710  42.0959440   8.0099500
   7.6230260  37.5817670   5.9206130   7.9305240  37.0264560   5.2041630
   6.6930960  37.7162130   5.7379120  13.1745320  53.2984960   8.2113590
  13.1872480  52.8947250   7.3435850  12.6220540  54.0732250   8.1075020
  14.4690740  50.0201180   3.3003760  14.3587070  49.0775510   3.4253180
  14.4658990  50.3816820   4.1866520  12.5730760  48.2014800   9.5396200
  12.9899550  47.9874910   8.7049660  13.2970580  48.4587590  10.1104820
  10.0111020  45.6466500   2.6566250   9.0840300  45.5803880   2.8854720
  10.1635840  46.5846630   2.5421490  16.5192860  46.6002020   9.6312440
  15.6911490  46.6695110   9.1562570  17.1143340  47.1856330   9.1628270
  14.0408310  47.2086800   3.1601500  13.4220730  46.8706350   2.5127800
  14.0232760  46.5646560   3.8680690  13.4834870  43.3871340  10.5767310
  13.0706050  44.2125050  10.8307300  12.7510820  42.8016380  10.3843670
   5.6167660  46.1731240   5.4385980   5.2124660  45.4608490   4.9431880
   5.7030780  45.8284480   6.3274020   6.0849360  49.8598800   7.6025190
   5.7877650  49.2544270   6.9232970   7.0349180  49.8976110   7.4914550
   4.3296280  42.9474450   9.2185020   4.8810870  43.0569790   8.4438270
   4.8439790  43.3212050   9.9340250  14.1734970  53.4330670  11.2648290
  13.6965530  54.2402860  11.0720900  13.4896760  52.7809000  11.4174500
   5.1767790  49.5980490  14.2532990   4.2796320  49.8220460  14.5006390
   5.2020660  49.7215430  13.3044390   4.0039010  46.4693810  12.8290360
   3.8646780  47.3416610  13.1977760   3.1220370  46.1266620  12.6838300
  10.3268390  51.3869680   4.1355490  10.7664300  52.1294010   3.7210880
  10.2655280  51.6296250   5.0594450   5.8019360  52.4115510  15.0375510
   5.7734790  52.8158460  14.1703940   5.6384330  51.4825870  14.8747110
   2.3172290  45.0676220   2.9392630   2.1969890  45.7938310   2.3273900
   2.0073180  44.2979130   2.4620540  17.7534180  53.1942610  16.3339680
  18.2293900  53.6725500  17.0128760  18.3741340  53.1260100  15.6085180
  17.1567430  50.3855460  13.4939690  17.2830490  50.1467340  12.5756870
  17.1988810  49.5540000  13.9661770  11.0184170  54.0883460  12.0634500
  11.5328840  53.9991470  12.8656930  10.1753250  54.4343160  12.3562410
   5.4726950  54.1537330   3.2690120   5.2969430  53.2372870   3.0557920
   4.6182690  54.5124620   3.5087920  12.2614630  53.5089070   4.1264990
  12.7171580  52.7278450   4.4403610  12.6007150  54.2195890   4.6706170
  17.0091440  42.4387920  14.4589430  16.3935710  42.9467590  13.9304890
  16.6887860  41.5386250  14.4015370   4.7835950  38.4111290   6.3216300
   4.3404100  39.1920830   5.9900820   5.3420940  38.7341180   7.0287240
   9.0705760  41.2779810  11.9251620   8.6085130  41.4862830  12.7371560
   8.6683870  40.4639160  11.6222290  14.0710270  42.4988760  13.0548280
  13.2203860  42.1994510  13.3757350  13.9112060  42.7430770  12.1432100
  11.1659980  43.9990510  15.1547070  11.4913390  43.1654260  14.8149300
  11.9540310  44.5219030  15.3025400   6.8211850  38.9558620   8.1805900
   7.1184180  39.8621450   8.0997920   7.3697410  38.4677400   7.5665470
   4.5750170  43.5344860   4.0497550   4.3491090  43.3182030   4.9544170
   3.7942700  43.9673320   3.7043520  11.8047930  43.5408230   2.6488200
  11.2056820  44.2644030   2.4651820  12.3527540  43.4785010   1.8664650
   7.0149380  44.4330440  14.7157820   6.9192980  43.4925170  14.5658220
   7.8581360  44.6545510  14.3205890  10.4112800  42.1771770   4.6791480
  10.8042370  42.4943970   3.8660170  10.7729650  41.2983650   4.7936000
   8.7204970  40.9279080  15.9388340   8.0303290  40.7351280  16.5734430
   9.4637270  41.2113720  16.4712640  10.9967940  44.7677520   8.7742260
  10.2649060  45.2764330   9.1232360  10.5992280  43.9507500   8.4731040
   7.4345330  41.4431720   7.1794750   7.4381390  41.0021670   6.3299290
   8.3296450  41.7649050   7.2866570   3.2847710  41.3258210   6.1388960
   2.9447760  41.8033440   6.8956010   2.5225030  40.8723330   5.7790060
  11.4593850  40.2211200   8.1865200  11.4766590  40.6719850   9.0307050
  11.2109430  39.3216840   8.3998640  14.8864600  37.6343380  14.0251580
  15.2110370  36.9033040  14.5509560  14.9221110  37.3157020  13.1232570
   7.7353300  45.5033500   8.9260160   8.1023430  45.0292070   9.6721500
   7.5458360  46.3775070   9.2668500   5.5252670  44.5442140  11.2444370
   5.2209740  45.4234120  11.4694730   6.4799130  44.6041930  11.2801810
   4.0534460  48.7503130   1.8411220   3.2796720  48.2100750   1.6809940
   4.7829090  48.2309740   1.5028980  14.8122440  47.7468490   7.6337610
  15.5321560  48.2423780   7.2433720  14.6104260  47.0686380   6.9891480
  10.2732380  39.1406450   1.7767000   9.4596990  38.6419620   1.7012310
  10.0794330  39.9804700   1.3603350  10.1941240  47.8177550  13.5206610
  10.1278550  46.8973220  13.2664200   9.5646380  47.9152990  14.2351250
   4.0971860  48.4183510   5.4790030   4.6150530  47.6151770   5.4246920
   3.6455880  48.3562650   6.3206860   4.7829520  45.8429120  15.2755280
   4.4829660  45.9886300  14.3783100   5.5540760  45.2834410  15.1828670
  10.1257970  50.6398120  13.2710410  10.1402510  49.7079080  13.0529320
   9.4183070  50.7257880  13.9100180  16.3369180  47.2805460  12.6178990
  15.6117370  47.8734240  12.4208380  16.8644640  47.2729000  11.8192360
  16.2882290  51.6780200   2.2691150  15.6458450  51.0235820   2.5434870
  15.9012950  52.0835290   1.4931820  11.8668770  49.0065630   6.1162840
  12.2192590  48.4093760   5.4564210  10.9831100  48.6809860   6.2871090
   7.9532050  49.7663320   3.5233250   8.6403180  50.3132530   3.9040840
   7.1664470  50.3104050   3.5582860   7.2559260  46.7709350   3.1358610
   7.7122040  47.5814600   3.3618800   6.9047470  46.4532490   3.9677100
   9.5591870  52.2815690  10.3650910  10.2034090  52.4875070  11.0424330
   9.9221310  51.5204090   9.9121760   3.1571040  37.1147000   3.6081130
   3.0285670  37.1064900   4.5566050   2.3333060  37.4530090   3.2572140
  10.8323950  50.2848040   9.0828360  11.4746180  49.5841200   9.1960530
  11.3573300  51.0646480   8.9025250  12.6061570  51.0842940  12.2864420
  12.9417810  51.6709630  12.9642340  11.6861910  50.9535650  12.5162210
   8.4350150  51.1334270  15.4552480   8.1147020  50.4143510  15.9998170
   7.7608510  51.8089340  15.5288540  11.6503750  41.3660430  10.8189280
  12.0184570  40.5455640  11.1468850  10.7901950  41.4262320  11.2344930
   6.9849810  42.6003320   3.0434720   6.2765960  43.0689660   3.4848330
   7.2694290  41.9425330   3.6779910   8.6105740  44.0200020  11.0427250
   9.1090990  44.4945840  11.7079100   8.7528690  43.0963540  11.2497280
  11.0165240  39.3253980   4.4830510  10.8933020  39.3440110   3.5340020
  11.9649800  39.3732920   4.6028910   8.1042030  54.5609280   3.7558490
   8.3583530  54.5230670   2.8337860   7.1554510  54.4342610   3.7486740
  15.8172600  40.2367980  11.8855640  15.3146200  40.9773380  12.2249450
  16.6329260  40.6251980  11.5692430  14.1094610  45.4801160   5.3317000
  13.1684750  45.4951390   5.5064690  14.4238680  44.6937120   5.7777300
  16.1120190  52.6510010   7.0071260  16.2367610  53.4741180   7.4795070
  16.9785750  52.4400740   6.6595410   3.5837720  54.7441220   6.6788390
   4.3200200  54.1956680   6.9496960   3.9678640  55.6097230   6.5394380
   2.5896000  53.9287290  15.8673970   3.3908730  54.2499340  16.2809370
   2.0747820  53.5682870  16.5893880  11.4260630  50.0367160  15.8149380
  10.8198790  50.0598760  15.0745130  11.1214740  49.3050200  16.3516630
  12.8561000  53.7647450  14.4258790  13.8082750  53.6805470  14.3759030
  12.7089220  54.4289160  15.0992580   7.3631750  47.8231740  14.3445540
   6.5977420  48.3916740  14.2600210   7.5447710  47.5307950  13.4513770
  14.5055100  49.5537070  14.9020560  15.2464570  49.8912830  14.3988020
  13.7427780  49.7229130  14.3490330   2.3416890  44.5590340  15.7060090
   2.3822230  44.2604210  16.6145320   3.1962390  44.9597950  15.5467610
   4.2822700  43.1382440  13.6734580   3.7519160  42.6473390  13.0457920
   4.9510770  43.5666640  13.1392510  13.1800760  47.6051900  13.4375770
  13.5941780  47.7596980  14.2866190  12.2451760  47.7307120  13.6001550
  13.6522930  44.9448060  15.4414920  14.2343700  44.1900380  15.3535400
  13.8284700  45.4755500  14.6646400   4.7695000  40.1044810  13.7531870
   4.6751870  39.4865560  13.0282740   4.1892390  40.8311100  13.5261780
   7.5356440  38.6618050  10.7859260   7.0873740  38.6842310   9.9404810
   6.9021640  38.2637070  11.3829560   7.9415990  47.5572380  11.4071700
   8.3604100  48.4005110  11.2347940   7.0224620  47.6944420  11.1778480
  10.2779890  45.2888560  12.7909540  10.3976100  44.6929700  13.5304380
  11.1373890  45.3258250  12.3710840  12.6167790  45.8425750  11.3672050
  12.0903010  46.3668370  10.7637190  12.9599130  46.4753140  11.9981780
   5.7923410  53.8625390  12.5229430   5.2544500  54.5871450  12.2038130
   6.0457370  53.3855730  11.7326770   7.0448660  41.8309910  14.0485360
   7.6348350  41.5225760  14.7363180   6.2268900  41.3589660  14.2045260
  11.8642090  41.4475720  14.2818380  11.1757610  40.7857260  14.2168370
  12.5848110  41.0013990  14.7266840   8.6485620  55.0976600  12.7816080
   8.5744320  56.0011740  13.0888450   7.7464460  54.7788500  12.7538150
   4.6474830  50.7560200   3.7451670   4.3470370  50.6325170   4.6455580
   4.5412320  49.8968790   3.3367400  16.1765300  52.7938780  13.1108640
  15.5767290  52.8531340  12.3672560  16.3059200  51.8543760  13.2405490
  17.8783180  48.1354180   5.7954480  18.2492010  47.3521500   5.3890450
  18.5185110  48.8243280   5.6171780  14.8616940  49.5190760  11.2084800
  14.0476780  49.9487920  11.4710590  15.2691140  50.1309170  10.5953850
  16.8207720  45.5107440   3.1014500  16.4451320  44.7435370   2.6695790
  16.0910840  45.8930140   3.5889430  16.2107340  44.6578960  12.7354020
  15.9793430  44.4291710  11.8351970  16.4711890  45.5778510  12.6898910
  14.6495410  39.8835390  15.5133720  15.5265590  39.8918790  15.8967720
  14.6616250  39.1466230  14.9026070  16.0958680  43.7364930   6.4021740
  16.6196160  43.2427580   5.7711910  16.6818100  43.8715290   7.1469310
  16.2748400  43.8204800   9.9241290  15.3251110  43.7868340  10.0386280
  16.4561410  44.7304910   9.6891060  15.5858650  42.9938280   2.3414150
  16.0817770  42.7609150   3.1263030  15.3874720  42.1550120   1.9251790
  17.0145810  41.6299230   4.8751830  16.9045090  41.4755270   5.8134100
  17.7753400  41.1020170   4.6327240  15.3611530  37.5693360  11.3334830
  15.9983750  38.1827500  11.6994020  15.5086420  37.6054020  10.3884060
  14.9192990  54.2709360   4.7353070  15.5152060  53.9493930   4.0587490
  15.1771140  53.7981180   5.5266340   2.8255560  50.7027270  14.8843700
   2.7825190  50.3320180  15.7658160   2.9566570  51.6404840  15.0245520
   6.5261590  52.2586860  10.4853420   6.2852950  52.5261420   9.5983940
   7.4664230  52.4292590  10.5404280   8.7316010  38.7219550  14.2409930
   8.6704900  39.3141380  14.9905340   9.6716390  38.6145510  14.0960190
  11.3690570  38.3789610  13.8802220  11.9830980  38.6968900  13.2183300
  11.9140130  37.8938200  14.4998080  17.7865750  54.2781240  11.2864060
  17.2924030  54.6750110  10.5691190  17.1779040  53.6530450  11.6801340
   1.8911830  37.0583870  13.9941280   2.4394820  36.8771920  13.2307390
   1.9567140  36.2677980  14.5297590   2.6643590  53.6489520  12.0041480
   2.0703910  53.5174220  12.7431520   2.6567430  52.8127660  11.5383580
  12.1098610  36.9421750  10.2071510  11.2358450  37.2756860  10.0044440
  12.0009360  36.4694930  11.0323380  13.0170590  39.1492620  11.5913230
  12.6883950  38.3344380  11.2114960  13.9652890  39.1062430  11.4678920
  15.4705200  54.9204660   8.5650800  15.0108170  55.6720470   8.1908820
  14.8417660  54.2011130   8.5065600   5.9000920  53.2292900   7.7398930
   6.4165940  52.6180260   7.2147190   6.5498300  53.7321680   8.2309940
   8.6396420  54.1201390   8.5667910   8.9274230  53.8655690   7.6900920
   9.1519640  53.5678750   9.1573480   9.8573430  37.8591590   9.1464420
   9.0745220  38.3337090   9.4261180   9.5636360  36.9546420   9.0377600
  14.4094500  38.5614690   7.1913510  14.8502590  38.5059790   6.3435110
  14.1402090  39.4772700   7.2623690  16.2733070  38.1929930   5.2022330
  16.2121470  37.2491150   5.0553350  17.0525100  38.3010020   5.7475790
   7.7427650  40.2778340   4.6580450   6.9302160  39.9035230   4.3176330
   8.2469290  39.5223420   4.9601640  12.2452630  36.9420790   5.8963520
  12.8482000  37.5141000   6.3712040  11.5045620  37.5060230   5.6737420
   5.7676830  38.4278260   3.2625500   5.1379570  37.7265570   3.4295630
   5.2281970  39.1882390   3.0458660   8.7068780  55.0417490  15.9336110
   9.6336090  54.8061760  15.9772070   8.6919210  55.8689490  15.4522140
  16.9413840  54.5843060   2.9310360  17.1166030  53.8980800   2.2871280
  16.2435410  55.1090110   2.5387030   5.8932390  37.7062240  15.6977990
   5.6116660  38.2095840  14.9338810   6.2752090  36.9083990  15.3320120
  12.4947850  37.1215820  16.2758460  12.3813300  37.4410430  17.1709980
  13.3117590  37.5228330  15.9795740  15.2746340  54.2687350  15.7577150
  16.0671660  53.7736580  15.5503110  15.5679490  54.9477490  16.3652760
  11.4006000  26.3664800  61.7367160  11.3200050  25.4519410  61.4658870
  10.9870420  26.8631870  61.0306870   9.5324040  28.1443820  63.6176430
   8.7566140  27.6644260  63.9075000  10.1836970  27.4649470  63.4432590
   3.5489870  28.4563630  64.4952190   2.7174750  28.2012340  64.8948700
   4.1570850  28.5274400  65.2310110  13.5531470  32.5504010  62.3975560
  13.0913000  31.7791250  62.7262730  14.3657020  32.5770080  62.9028010
   3.5291130  32.4903720  64.6910210   3.8319170  31.6001460  64.5120430
   4.2734720  33.0473940  64.4632460   9.7794780  34.8362020  62.0179550
   9.1606220  35.2919520  61.4473990  10.6346560  34.9913480  61.6169250
   8.9733030  30.8201010  63.6246590   8.9041310  29.8790950  63.4635720
   9.7352890  30.9102420  64.1969160  10.0038200  23.6271390  63.8515520
  10.3803020  22.7543270  63.7389190   9.9057710  23.9630090  62.9605960
   4.1343210  21.9997020  59.3132960   4.2409960  22.9000750  59.6201720
   3.2235570  21.9514990  59.0227610  13.7862320  21.1221830  60.7843860
  14.6071940  20.6318400  60.8269340  13.8196400  21.7119490  61.5375700
   5.9750940  24.9683390  63.6458140   6.4829160  25.4664360  64.2863160
   6.5064180  24.1918590  63.4697500  18.0761870  23.1388580  67.3487490
  17.3714040  23.5270290  66.8302600  18.3419790  23.8338870  67.9508420
   4.2587040  19.6081950  67.9121560   4.2605480  20.1254340  67.1067460
   3.4291350  19.1312130  67.8891490  10.6458130  29.7201260  59.4111460
  10.0275400  30.1850710  58.8474180  11.1581380  30.4128740  59.8280970
   5.5089890  29.2477130  66.0895060   5.1759270  29.8746050  66.7316130
   5.6856570  29.7739010  65.3096730  14.0223800  23.0622210  63.5571400
  13.3179370  23.3507100  64.1374510  14.3835960  23.8722320  63.1970960
   3.9402370  21.3191910  65.9192010   4.2819180  22.1633960  65.6245880
   3.0018180  21.4675650  66.0357350   4.7208990  31.2157930  67.9044240
   5.3382990  31.8909010  67.6228690   3.8602110  31.6245910  67.8131740
  15.6386580  32.6797340  65.8198880  14.9550100  33.3496450  65.8115550
  16.1780870  32.8777990  65.0543740  17.0910720  22.5077000  63.9480610
  16.1435630  22.5415980  64.0796040  17.4160710  23.3215950  64.3329970
   7.6230260  18.8074180  62.2436600   7.9305240  18.2521070  61.5272100
   6.6930960  18.9418640  62.0609590  13.1745320  34.5241470  64.5344060
  13.1872480  34.1203760  63.6666320  12.6220540  35.2988760  64.4305490
  14.4690740  31.2457690  59.6234230  14.3587070  30.3032020  59.7483650
  14.4658990  31.6073330  60.5096990  12.5730760  29.4271310  65.8626670
  12.9899550  29.2131420  65.0280130  13.2970580  29.6844100  66.4335290
  10.0111020  26.8723010  58.9796720   9.0840300  26.8060390  59.2085190
  10.1635840  27.8103140  58.8651960   9.9980100  23.1440010  55.9763880
   9.0583770  23.3053970  56.0616340  10.3163360  23.8625690  55.4299870
  16.5192860  27.8258530  65.9542910  15.6911490  27.8951620  65.4793040
  17.1143340  28.4112840  65.4858740  14.0408310  28.4343310  59.4831970
  13.4220730  28.0962860  58.8358270  14.0232760  27.7903070  60.1911160
  13.4834870  24.6127850  66.8997780  13.0706050  25.4381560  67.1537770
  12.7510820  24.0272890  66.7074140   5.6167660  27.3987750  61.7616450
   5.2124660  26.6865000  61.2662350   5.7030780  27.0540990  62.6504490
   6.0849360  31.0855310  63.9255660   5.7877650  30.4800780  63.2463440
   7.0349180  31.1232620  63.8145020   4.3296280  24.1730960  65.5415490
   4.8810870  24.2826300  64.7668740   4.8439790  24.5468560  66.2570720
  14.1734970  34.6587180  67.5878760  13.6965530  35.4659370  67.3951370
  13.4896760  34.0065510  67.7404970  12.2173010  27.6730120  56.4904720
  12.6566290  26.8352550  56.3442540  12.9301430  28.3059520  56.5768860
  10.3268390  32.6126190  60.4585960  10.7664300  33.3550520  60.0441350
  10.2655280  32.8552760  61.3824920  15.7990150  18.9272930  54.8045760
  15.4862810  19.0199760  55.7044830  16.5602620  19.5053960  54.7543190
   2.3172290  26.2932730  59.2623100   2.1969890  27.0194820  58.6504370
   2.0073180  25.5235640  58.7851010  12.9938570  35.5995310  57.8148970
  12.8339710  35.3098250  58.7130800  12.8285280  34.8235440  57.2794200
   5.4726950  35.3793840  59.5920590   5.2969430  34.4629380  59.3788390
   4.6182690  35.7381130  59.8318390  12.6964700  33.1082870  56.3746970
  12.0029860  33.1060160  55.7149250  13.4387560  32.6842190  55.9441140
  12.2614630  34.7345580  60.4495460  12.7171580  33.9534960  60.7634080
  12.6007150  35.4452400  60.9936640   4.7835950  19.6367800  62.6446770
   4.3404100  20.4177340  62.3131290   5.3420940  19.9597690  63.3517710
   9.0705760  22.5036320  68.2482090   8.6085130  22.7119340  69.0602030
   8.6683870  21.6895670  67.9452760   7.8994770  19.2578500  57.5252600
   7.2748950  19.2538370  58.2505910   7.8124890  18.3909460  57.1288570
   6.8211850  20.1815130  64.5036370   7.1184180  21.0877960  64.4228390
   7.3697410  19.6933910  63.8895940   4.5750170  24.7601370  60.3728020
   4.3491090  24.5438540  61.2774640   3.7942700  25.1929830  60.0273990
  11.8047930  24.7664740  58.9718670  11.2056820  25.4900540  58.7882290
  12.3527540  24.7041520  58.1895120  10.4112800  23.4028280  61.0021950
  10.8042370  23.7200480  60.1890640  10.7729650  22.5240160  61.1166470
  10.9967940  25.9934030  65.0972730  10.2649060  26.5020840  65.4462830
  10.5992280  25.1764010  64.7961510   7.4345330  22.6688230  63.5025220
   7.4381390  22.2278180  62.6529760   8.3296450  22.9905560  63.6097040
   3.2847710  22.5514720  62.4619430   2.9447760  23.0289950  63.2186480
   2.5225030  22.0979840  62.1020530   7.4965480  23.6700310  56.4931980
   7.6178300  23.6286790  57.4417800   7.1113990  24.5324460  56.3378710
  11.4593850  21.4467710  64.5095670  11.4766590  21.8976360  65.3537520
  11.2109430  20.5473350  64.7229110   6.5086980  25.9801450  55.8915280
   5.9403880  25.5319700  55.2651190   7.2175980  26.3394230  55.3580430
   7.7353300  26.7290010  65.2490630   8.1023430  26.2548580  65.9951970
   7.5458360  27.6031580  65.5898970   5.5252670  25.7698650  67.5674840
   5.2209740  26.6490630  67.7925200   6.4799130  25.8298440  67.6032280
   4.0534460  29.9759640  58.1641690   3.2796720  29.4357260  58.0040410
   4.7829090  29.4566250  57.8259450  14.8122440  28.9725000  63.9568080
  15.5321560  29.4680290  63.5664190  14.6104260  28.2942890  63.3121950
  10.2732380  20.3662960  58.0997470   9.4596990  19.8676130  58.0242780
  10.0794330  21.2061210  57.6833820  12.9880770  24.7382610  56.3959630
  13.8760390  25.0499840  56.2210970  12.9585860  23.8654860  56.0040210
   4.0971860  29.6440020  61.8020500   4.6150530  28.8408280  61.7477390
   3.6455880  29.5819160  62.6437330   8.9841360  30.9106300  57.0747800
   9.3257060  31.6548530  56.5791120   8.1554070  31.2237420  57.4372630
  15.2595040  26.0494450  55.8639490  15.1758760  26.4808670  55.0135930
  15.9789230  26.5092800  56.2966310  16.3369180  28.5061970  68.9409460
  15.6117370  29.0990750  68.7438850  16.8644640  28.4985510  68.1422830
  16.2882290  32.9036710  58.5921620  15.6458450  32.2492330  58.8665340
  15.9012950  33.3091800  57.8162290  11.8668770  30.2322140  62.4393310
  12.2192590  29.6350270  61.7794680  10.9831100  29.9066370  62.6101560
   7.9532050  30.9919830  59.8463720   8.6403180  31.5389040  60.2271310
   7.1664470  31.5360560  59.8813330   7.2559260  27.9965860  59.4589080
   7.7122040  28.8071110  59.6849270   6.9047470  27.6789000  60.2907570
   9.5591870  33.5072200  66.6881380  10.2034090  33.7131580  67.3654800
   9.9221310  32.7460600  66.2352230   3.1571040  18.3403510  59.9311600
   3.0285670  18.3321410  60.8796520   2.3333060  18.6786600  59.5802610
  10.8323950  31.5104550  65.4058830  11.4746180  30.8097710  65.5191000
  11.3573300  32.2902990  65.2255720  14.6779670  31.7953170  55.1297970
  14.4517250  31.0783610  55.7222610  14.2875870  31.5465610  54.2919720
  14.2595920  29.7125110  56.7912130  13.9717620  30.1737800  57.5790010
  15.0548090  29.2522880  57.0596350   6.4764320  33.2051230  56.7216100
   6.4674420  33.9380920  56.1060610   5.5562680  32.9582810  56.8143060
  11.6503750  22.5916940  67.1419750  12.0184570  21.7712150  67.4699320
  10.7901950  22.6518830  67.5575400  15.0165780  21.5473880  57.9507310
  14.3878940  21.6519550  57.2365540  14.5217700  21.7670660  58.7401190
   9.4623920  33.2679470  55.3841290   9.5635900  33.0643460  54.4543270
   8.5625660  33.0137750  55.5889070   6.9849810  23.8259830  59.3665190
   6.2765960  24.2946170  59.8078800   7.2694290  23.1681840  60.0010380
   8.6105740  25.2456530  67.3657720   9.1090990  25.7202350  68.0309570
   8.7528690  24.3220050  67.5727750  11.0165240  20.5510490  60.8060980
  10.8933020  20.5696620  59.8570490  11.9649800  20.5989430  60.9259380
   8.1042030  35.7865790  60.0788960   8.3583530  35.7487180  59.1568330
   7.1554510  35.6599120  60.0717210   5.1884830  22.1344910  56.7415900
   6.0375360  22.5715060  56.6756090   4.8216100  22.4465170  57.5687960
  15.8172600  21.4624490  68.2086110  15.3146200  22.2029890  68.5479920
  16.6329260  21.8508490  67.8922900  14.1094610  26.7057670  61.6547470
  13.1684750  26.7207900  61.8295160  14.4238680  25.9193630  62.1007770
   4.0876250  28.3877270  55.2151430   4.8539520  28.2758630  55.7776860
   4.1650940  27.6915240  54.5628200   2.7823010  25.8202340  55.8984320
   2.8626600  24.8729850  56.0101720   3.6742760  26.1509220  56.0044980
  16.1120190  33.8766520  63.3301730  16.2367610  34.6997690  63.8025540
  16.9785750  33.6657250  62.9825880   3.5837720  35.9697730  63.0018860
   4.3200200  35.4213190  63.2727430   3.9678640  36.8353740  62.8624850
   6.6940030  35.1428040  54.8244430   7.4868640  35.4316870  54.3726220
   6.1744380  34.7120210  54.1456910  15.7470200  34.3698170  56.2481170
  15.4611710  33.9563310  55.4335350  15.5489750  35.2985880  56.1281690
   7.2117430  30.3631450  54.6886780   7.1068070  29.7483800  55.4148160
   7.0441650  29.8397340  53.9049790  10.4520160  29.4251480  55.2928770
   9.9030260  29.8720780  55.9371510  11.0739420  28.9200730  55.8166440
   6.1195280  28.3842400  57.1894070   6.5411700  28.2182270  58.0325460
   6.2446120  27.5742630  56.6949210   8.6322920  27.4080010  54.4371170
   9.1528580  26.6929030  54.0712320   9.2791320  28.0465880  54.7371680
   7.5356440  19.8874560  67.1089730   7.0873740  19.9098820  66.2635280
   6.9021640  19.4893580  67.7060030   7.9415990  28.7828890  67.7302170
   8.3604100  29.6261620  67.5578410   7.0224620  28.9200930  67.5008950
  12.6167790  27.0682260  67.6902520  12.0903010  27.5924880  67.0867660
  12.9599130  27.7009650  68.3212250   5.0154180  24.4575630  54.1352230
   4.8143240  23.5942990  54.4965570   4.8446230  24.3708990  53.1973830
   5.7923410  35.0881900  68.8459900   5.2544500  35.8127960  68.5268600
   6.0457370  34.6112240  68.0557240  12.4942490  19.2683860  56.6639110
  12.7744780  18.4251760  57.0198530  11.7208220  19.5006970  57.1777860
   3.8136980  21.5576250  54.1230110   4.1162880  21.5643680  53.2149260
   4.5531570  21.2074110  54.6197770   7.0321910  20.5010870  55.1086310
   6.6843910  19.8234860  54.5288760   7.2334680  20.0400380  55.9229700
   9.1970950  35.4891620  56.7272910  10.0921740  35.8276590  56.7491670
   9.2288580  34.7671030  56.0997190   2.8367110  30.8618670  54.9559910
   3.2741980  31.4048340  55.6117490   3.3214840  30.0365620  54.9656250
   4.6474830  31.9816710  60.0682140   4.3470370  31.8581680  60.9686050
   4.5412320  31.1225300  59.6597870  17.4166750  31.7613110  54.7708820
  16.5859710  31.8289760  55.2416050  17.5938580  32.6517230  54.4675680
  16.8723210  28.5060590  57.2743020  17.6342120  29.0757240  57.3802710
  16.8877580  27.9387790  58.0451330  17.8783180  29.3610690  62.1184950
  18.2492010  28.5778010  61.7120920  18.5185110  30.0499790  61.9402250
  14.8616940  30.7447270  67.5315270  14.0476780  31.1744430  67.7941060
  15.2691140  31.3565680  66.9184320  16.9242380  28.7994960  54.4315540
  17.1991220  29.7073840  54.3034760  16.7353120  28.7357490  55.3677530
  13.3217990  21.8239810  55.7269170  13.7402870  21.6370790  54.8865830
  13.0154050  20.9718860  56.0372100  16.8207720  26.7363950  59.4244970
  16.4451320  25.9691880  58.9926260  16.0910840  27.1186650  59.9119900
  16.2107340  25.8835470  69.0584490  15.9793430  25.6548220  68.1582440
  16.4711890  26.8035020  69.0129380  16.0958680  24.9621440  62.7252210
  16.6196160  24.4684090  62.0942380  16.6818100  25.0971800  63.4699780
  16.2748400  25.0461310  66.2471760  15.3251110  25.0124850  66.3616750
  16.4561410  25.9561420  66.0121530   1.7767000  19.3502320  54.3973040
   2.4995130  19.8911260  54.7154260   2.0491520  19.0765740  53.5214580
  15.5858650  24.2194790  58.6644620  16.0817770  23.9865660  59.4493500
  15.3874720  23.3806630  58.2482260  17.0145810  22.8555740  61.1982300
  16.9045090  22.7011780  62.1364570  17.7753400  22.3276680  60.9557710
  15.3611530  18.7949870  67.6565300  15.9983750  19.4084010  68.0224490
  15.5086420  18.8310530  66.7114530  17.9036080  20.6863660  54.4388440
  18.8285390  20.5544840  54.2306730  17.8811870  20.7656480  55.3924890
  17.9774570  21.4574320  57.0645150  17.1826070  21.3919440  57.5938060
  18.1817850  22.3924960  57.0530500  14.9192990  35.4965870  61.0583540
  15.5152060  35.1750440  60.3817960  15.1771140  35.0237690  61.8496810
   6.5261590  33.4843370  66.8083890   6.2852950  33.7517930  65.9214410
   7.4664230  33.6549100  66.8634750  17.7865750  35.5037750  67.6094530
  17.2924030  35.9006620  66.8921660  17.1779040  34.8786960  68.0031810
   2.6643590  34.8746030  68.3271950   2.0703910  34.7430730  69.0661990
   2.6567430  34.0384170  67.8614050  12.1098610  18.1678260  66.5301980
  11.2358450  18.5013370  66.3274910  12.0009360  17.6951440  67.3553850
  13.0170590  20.3749130  67.9143700  12.6883950  19.5600890  67.5345430
  13.9652890  20.3318940  67.7909390  15.4705200  36.1461170  64.8881270
  15.0108170  36.8976980  64.5139290  14.8417660  35.4267640  64.8296070
   5.9000920  34.4549410  64.0629400   6.4165940  33.8436770  63.5377660
   6.5498300  34.9578190  64.5540410   8.6396420  35.3457900  64.8898380
   8.9274230  35.0912200  64.0131390   9.1519640  34.7935260  65.4803950
   9.8573430  19.0848100  65.4694890   9.0745220  19.5593600  65.7491650
   9.5636360  18.1802930  65.3608070  14.4094500  19.7871200  63.5143980
  14.8502590  19.7316300  62.6665580  14.1402090  20.7029210  63.5854160
  16.2733070  19.4186440  61.5252800  16.2121470  18.4747660  61.3783820
  17.0525100  19.5266530  62.0706260   7.7427650  21.5034850  60.9810920
   6.9302160  21.1291740  60.6406800   8.2469290  20.7479930  61.2832110
  12.2452630  18.1677300  62.2193990  12.8482000  18.7397510  62.6942510
  11.5045620  18.7316740  61.9967890  15.3887230  18.5698860  57.4934270
  15.5837860  19.4682310  57.7601700  14.6017100  18.3385940  57.9867220
   3.5738990  19.9159630  56.5310580   4.1031750  19.1289430  56.4018530
   4.2067310  20.5950820  56.7646110   5.7676830  19.6534770  59.5855970
   5.1379570  18.9522080  59.7526100   5.2281970  20.4138900  59.3689130
  16.9413840  35.8099570  59.2540830  17.1166030  35.1237310  58.6101750
  16.2435410  36.3346620  58.8617500   4.7841490  36.1994410  56.8076140
   5.5160310  35.9153690  56.2600030   5.0435160  35.9607690  57.6975520
   3.9456280  32.3159140  56.8122470   3.3165160  32.7844240  57.3608300
   4.0604110  31.4708360  57.2468660  11.4006000  26.3664800  42.9623670
  11.3200050  25.4519410  42.6915380  10.9870420  26.8631870  42.2563380
   9.5324040  28.1443820  44.8432940   8.7566140  27.6644260  45.1331510
  10.1836970  27.4649470  44.6689100   3.5489870  28.4563630  45.7208700
   2.7174750  28.2012340  46.1205210   4.1570850  28.5274400  46.4566620
  13.5531470  32.5504010  43.6232070  13.0913000  31.7791250  43.9519240
  14.3657020  32.5770080  44.1284520   3.5291130  32.4903720  45.9166720
   3.8319170  31.6001460  45.7376940   4.2734720  33.0473940  45.6888970
   9.7794780  34.8362020  43.2436060   9.1606220  35.2919520  42.6730500
  10.6346560  34.9913480  42.8425760   8.9733030  30.8201010  44.8503100
   8.9041310  29.8790950  44.6892230   9.7352890  30.9102420  45.4225670
  10.0038200  23.6271390  45.0772030  10.3803020  22.7543270  44.9645700
   9.9057710  23.9630090  44.1862470   4.1343210  21.9997020  40.5389470
   4.2409960  22.9000750  40.8458230   3.2235570  21.9514990  40.2484120
  13.7862320  21.1221830  42.0100370  14.6071940  20.6318400  42.0525850
  13.8196400  21.7119490  42.7632210   5.9750940  24.9683390  44.8714650
   6.4829160  25.4664360  45.5119670   6.5064180  24.1918590  44.6954010
  18.0761870  23.1388580  48.5744000  17.3714040  23.5270290  48.0559110
  18.3419790  23.8338870  49.1764930   4.2587040  19.6081950  49.1378070
   4.2605480  20.1254340  48.3323970   3.4291350  19.1312130  49.1148000
  10.6458130  29.7201260  40.6367970  10.0275400  30.1850710  40.0730690
  11.1581380  30.4128740  41.0537480   5.5089890  29.2477130  47.3151570
   5.1759270  29.8746050  47.9572640   5.6856570  29.7739010  46.5353240
  14.0223800  23.0622210  44.7827910  13.3179370  23.3507100  45.3631020
  14.3835960  23.8722320  44.4227470   3.9402370  21.3191910  47.1448520
   4.2819180  22.1633960  46.8502390   3.0018180  21.4675650  47.2613860
   4.7208990  31.2157930  49.1300750   5.3382990  31.8909010  48.8485200
   3.8602110  31.6245910  49.0388250  15.6386580  32.6797340  47.0455390
  14.9550100  33.3496450  47.0372060  16.1780870  32.8777990  46.2800250
  17.0910720  22.5077000  45.1737120  16.1435630  22.5415980  45.3052550
  17.4160710  23.3215950  45.5586480   7.6230260  18.8074180  43.4693110
   7.9305240  18.2521070  42.7528610   6.6930960  18.9418640  43.2866100
  13.1745320  34.5241470  45.7600570  13.1872480  34.1203760  44.8922830
  12.6220540  35.2988760  45.6562000  14.4690740  31.2457690  40.8490740
  14.3587070  30.3032020  40.9740160  14.4658990  31.6073330  41.7353500
  12.5730760  29.4271310  47.0883180  12.9899550  29.2131420  46.2536640
  13.2970580  29.6844100  47.6591800  10.0111020  26.8723010  40.2053230
   9.0840300  26.8060390  40.4341700  10.1635840  27.8103140  40.0908470
   9.9980100  23.1440010  37.2020390   9.0583770  23.3053970  37.2872850
  10.3163360  23.8625690  36.6556380  16.5192860  27.8258530  47.1799420
  15.6911490  27.8951620  46.7049550  17.1143340  28.4112840  46.7115250
  14.0408310  28.4343310  40.7088480  13.4220730  28.0962860  40.0614780
  14.0232760  27.7903070  41.4167670  13.4834870  24.6127850  48.1254290
  13.0706050  25.4381560  48.3794280  12.7510820  24.0272890  47.9330650
   5.6167660  27.3987750  42.9872960   5.2124660  26.6865000  42.4918860
   5.7030780  27.0540990  43.8761000   6.0849360  31.0855310  45.1512170
   5.7877650  30.4800780  44.4719950   7.0349180  31.1232620  45.0401530
   4.3296280  24.1730960  46.7672000   4.8810870  24.2826300  45.9925250
   4.8439790  24.5468560  47.4827230  14.1734970  34.6587180  48.8135270
  13.6965530  35.4659370  48.6207880  13.4896760  34.0065510  48.9661480
   5.1767790  30.8237000  51.8019970   4.2796320  31.0476970  52.0493370
   5.2020660  30.9471940  50.8531370  12.2173010  27.6730120  37.7161230
  12.6566290  26.8352550  37.5699050  12.9301430  28.3059520  37.8025370
   4.0039010  27.6950320  50.3777340   3.8646780  28.5673120  50.7464740
   3.1220370  27.3523130  50.2325280  10.3268390  32.6126190  41.6842470
  10.7664300  33.3550520  41.2697860  10.2655280  32.8552760  42.6081430
   5.8019360  33.6372020  52.5862490   5.7734790  34.0414970  51.7190920
   5.6384330  32.7082380  52.4234090  15.7990150  18.9272930  36.0302270
  15.4862810  19.0199760  36.9301340  16.5602620  19.5053960  35.9799700
   2.3172290  26.2932730  40.4879610   2.1969890  27.0194820  39.8760880
   2.0073180  25.5235640  40.0107520  17.7534180  34.4199120  53.8826660
  18.2293900  34.8982010  54.5615740  18.3741340  34.3516610  53.1572160
  17.1567430  31.6111970  51.0426670  17.2830490  31.3723850  50.1243850
  17.1988810  30.7796510  51.5148750  11.0184170  35.3139970  49.6121480
  11.5328840  35.2247980  50.4143910  10.1753250  35.6599670  49.9049390
  12.9938570  35.5995310  39.0405480  12.8339710  35.3098250  39.9387310
  12.8285280  34.8235440  38.5050710   5.4726950  35.3793840  40.8177100
   5.2969430  34.4629380  40.6044900   4.6182690  35.7381130  41.0574900
  12.6964700  33.1082870  37.6003480  12.0029860  33.1060160  36.9405760
  13.4387560  32.6842190  37.1697650  12.2614630  34.7345580  41.6751970
  12.7171580  33.9534960  41.9890590  12.6007150  35.4452400  42.2193150
  17.0091440  23.6644430  52.0076410  16.3935710  24.1724100  51.4791870
  16.6887860  22.7642760  51.9502350   4.7835950  19.6367800  43.8703280
   4.3404100  20.4177340  43.5387800   5.3420940  19.9597690  44.5774220
   9.0705760  22.5036320  49.4738600   8.6085130  22.7119340  50.2858540
   8.6683870  21.6895670  49.1709270  14.0710270  23.7245270  50.6035260
  13.2203860  23.4251020  50.9244330  13.9112060  23.9687280  49.6919080
  11.1659980  25.2247020  52.7034050  11.4913390  24.3910770  52.3636280
  11.9540310  25.7475540  52.8512380   7.8994770  19.2578500  38.7509110
   7.2748950  19.2538370  39.4762420   7.8124890  18.3909460  38.3545080
   6.8211850  20.1815130  45.7292880   7.1184180  21.0877960  45.6484900
   7.3697410  19.6933910  45.1152450   4.5750170  24.7601370  41.5984530
   4.3491090  24.5438540  42.5031150   3.7942700  25.1929830  41.2530500
  11.8047930  24.7664740  40.1975180  11.2056820  25.4900540  40.0138800
  12.3527540  24.7041520  39.4151630   7.0149380  25.6586950  52.2644800
   6.9192980  24.7181680  52.1145200   7.8581360  25.8802020  51.8692870
  10.4112800  23.4028280  42.2278460  10.8042370  23.7200480  41.4147150
  10.7729650  22.5240160  42.3422980   8.7204970  22.1535590  53.4875320
   8.0303290  21.9607790  54.1221410   9.4637270  22.4370230  54.0199620
  10.9967940  25.9934030  46.3229240  10.2649060  26.5020840  46.6719340
  10.5992280  25.1764010  46.0218020   7.4345330  22.6688230  44.7281730
   7.4381390  22.2278180  43.8786270   8.3296450  22.9905560  44.8353550
   3.2847710  22.5514720  43.6875940   2.9447760  23.0289950  44.4442990
   2.5225030  22.0979840  43.3277040   7.4965480  23.6700310  37.7188490
   7.6178300  23.6286790  38.6674310   7.1113990  24.5324460  37.5635220
  11.4593850  21.4467710  45.7352180  11.4766590  21.8976360  46.5794030
  11.2109430  20.5473350  45.9485620   6.5086980  25.9801450  37.1171790
   5.9403880  25.5319700  36.4907700   7.2175980  26.3394230  36.5836940
  14.8864600  18.8599890  51.5738560  15.2110370  18.1289550  52.0996540
  14.9221110  18.5413530  50.6719550   7.7353300  26.7290010  46.4747140
   8.1023430  26.2548580  47.2208480   7.5458360  27.6031580  46.8155480
   5.5252670  25.7698650  48.7931350   5.2209740  26.6490630  49.0181710
   6.4799130  25.8298440  48.8288790   4.0534460  29.9759640  39.3898200
   3.2796720  29.4357260  39.2296920   4.7829090  29.4566250  39.0515960
  14.8122440  28.9725000  45.1824590  15.5321560  29.4680290  44.7920700
  14.6104260  28.2942890  44.5378460  10.2732380  20.3662960  39.3253980
   9.4596990  19.8676130  39.2499290  10.0794330  21.2061210  38.9090330
  10.1941240  29.0434060  51.0693590  10.1278550  28.1229730  50.8151180
   9.5646380  29.1409500  51.7838230  12.9880770  24.7382610  37.6216140
  13.8760390  25.0499840  37.4467480  12.9585860  23.8654860  37.2296720
   4.0971860  29.6440020  43.0277010   4.6150530  28.8408280  42.9733900
   3.6455880  29.5819160  43.8693840   8.9841360  30.9106300  38.3004310
   9.3257060  31.6548530  37.8047630   8.1554070  31.2237420  38.6629140
   4.7829520  27.0685630  52.8242260   4.4829660  27.2142810  51.9270080
   5.5540760  26.5090920  52.7315650  10.1257970  31.8654630  50.8197390
  10.1402510  30.9335590  50.6016300   9.4183070  31.9514390  51.4587160
  15.2595040  26.0494450  37.0896000  15.1758760  26.4808670  36.2392440
  15.9789230  26.5092800  37.5222820  16.3369180  28.5061970  50.1665970
  15.6117370  29.0990750  49.9695360  16.8644640  28.4985510  49.3679340
  16.2882290  32.9036710  39.8178130  15.6458450  32.2492330  40.0921850
  15.9012950  33.3091800  39.0418800  11.8668770  30.2322140  43.6649820
  12.2192590  29.6350270  43.0051190  10.9831100  29.9066370  43.8358070
   7.9532050  30.9919830  41.0720230   8.6403180  31.5389040  41.4527820
   7.1664470  31.5360560  41.1069840   7.2559260  27.9965860  40.6845590
   7.7122040  28.8071110  40.9105780   6.9047470  27.6789000  41.5164080
   9.5591870  33.5072200  47.9137890  10.2034090  33.7131580  48.5911310
   9.9221310  32.7460600  47.4608740   3.1571040  18.3403510  41.1568110
   3.0285670  18.3321410  42.1053030   2.3333060  18.6786600  40.8059120
  10.8323950  31.5104550  46.6315340  11.4746180  30.8097710  46.7447510
  11.3573300  32.2902990  46.4512230  14.6779670  31.7953170  36.3554480
  14.4517250  31.0783610  36.9479120  14.2875870  31.5465610  35.5176230
  12.6061570  32.3099450  49.8351400  12.9417810  32.8966140  50.5129320
  11.6861910  32.1792160  50.0649190  14.2595920  29.7125110  38.0168640
  13.9717620  30.1737800  38.8046520  15.0548090  29.2522880  38.2852860
   8.4350150  32.3590780  53.0039460   8.1147020  31.6400020  53.5485150
   7.7608510  33.0345850  53.0775520   6.4764320  33.2051230  37.9472610
   6.4674420  33.9380920  37.3317120   5.5562680  32.9582810  38.0399570
  11.6503750  22.5916940  48.3676260  12.0184570  21.7712150  48.6955830
  10.7901950  22.6518830  48.7831910  15.0165780  21.5473880  39.1763820
  14.3878940  21.6519550  38.4622050  14.5217700  21.7670660  39.9657700
   9.4623920  33.2679470  36.6097800   9.5635900  33.0643460  35.6799780
   8.5625660  33.0137750  36.8145580   6.9849810  23.8259830  40.5921700
   6.2765960  24.2946170  41.0335310   7.2694290  23.1681840  41.2266890
   8.6105740  25.2456530  48.5914230   9.1090990  25.7202350  49.2566080
   8.7528690  24.3220050  48.7984260  11.0165240  20.5510490  42.0317490
  10.8933020  20.5696620  41.0827000  11.9649800  20.5989430  42.1515890
   8.1042030  35.7865790  41.3045470   8.3583530  35.7487180  40.3824840
   7.1554510  35.6599120  41.2973720   5.1884830  22.1344910  37.9672410
   6.0375360  22.5715060  37.9012600   4.8216100  22.4465170  38.7944470
  15.8172600  21.4624490  49.4342620  15.3146200  22.2029890  49.7736430
  16.6329260  21.8508490  49.1179410  14.1094610  26.7057670  42.8803980
  13.1684750  26.7207900  43.0551670  14.4238680  25.9193630  43.3264280
   4.0876250  28.3877270  36.4407940   4.8539520  28.2758630  37.0033370
   4.1650940  27.6915240  35.7884710   2.7823010  25.8202340  37.1240830
   2.8626600  24.8729850  37.2358230   3.6742760  26.1509220  37.2301490
  16.1120190  33.8766520  44.5558240  16.2367610  34.6997690  45.0282050
  16.9785750  33.6657250  44.2082390   3.5837720  35.9697730  44.2275370
   4.3200200  35.4213190  44.4983940   3.9678640  36.8353740  44.0881360
   2.5896000  35.1543800  53.4160950   3.3908730  35.4755850  53.8296350
   2.0747820  34.7939380  54.1380860   6.6940030  35.1428040  36.0500940
   7.4868640  35.4316870  35.5982730   6.1744380  34.7120210  35.3713420
  11.4260630  31.2623670  53.3636360  10.8198790  31.2855270  52.6232110
  11.1214740  30.5306710  53.9003610  12.8561000  34.9903960  51.9745770
  13.8082750  34.9061980  51.9246010  12.7089220  35.6545670  52.6479560
  15.7470200  34.3698170  37.4737680  15.4611710  33.9563310  36.6591860
  15.5489750  35.2985880  37.3538200   7.2117430  30.3631450  35.9143290
   7.1068070  29.7483800  36.6404670   7.0441650  29.8397340  35.1306300
   7.3631750  29.0488250  51.8932520   6.5977420  29.6173250  51.8087190
   7.5447710  28.7564460  51.0000750  10.4520160  29.4251480  36.5185280
   9.9030260  29.8720780  37.1628020  11.0739420  28.9200730  37.0422950
  14.5055100  30.7793580  52.4507540  15.2464570  31.1169340  51.9475000
  13.7427780  30.9485640  51.8977310   2.3416890  25.7846850  53.2547070
   2.3822230  25.4860720  54.1632300   3.1962390  26.1854460  53.0954590
   6.1195280  28.3842400  38.4150580   6.5411700  28.2182270  39.2581970
   6.2446120  27.5742630  37.9205720   4.2822700  24.3638950  51.2221560
   3.7519160  23.8729900  50.5944900   4.9510770  24.7923150  50.6879490
   8.6322920  27.4080010  35.6627680   9.1528580  26.6929030  35.2968830
   9.2791320  28.0465880  35.9628190  13.1800760  28.8308410  50.9862750
  13.5941780  28.9853490  51.8353170  12.2451760  28.9563630  51.1488530
  13.6522930  26.1704570  52.9901900  14.2343700  25.4156890  52.9022380
  13.8284700  26.7012010  52.2133380   4.7695000  21.3301320  51.3018850
   4.6751870  20.7122070  50.5769720   4.1892390  22.0567610  51.0748760
   7.5356440  19.8874560  48.3346240   7.0873740  19.9098820  47.4891790
   6.9021640  19.4893580  48.9316540   7.9415990  28.7828890  48.9558680
   8.3604100  29.6261620  48.7834920   7.0224620  28.9200930  48.7265460
  10.2779890  26.5145070  50.3396520  10.3976100  25.9186210  51.0791360
  11.1373890  26.5514760  49.9197820  12.6167790  27.0682260  48.9159030
  12.0903010  27.5924880  48.3124170  12.9599130  27.7009650  49.5468760
   5.0154180  24.4575630  35.3608740   4.8143240  23.5942990  35.7222080
   4.8446230  24.3708990  34.4230340   5.7923410  35.0881900  50.0716410
   5.2544500  35.8127960  49.7525110   6.0457370  34.6112240  49.2813750
   7.0448660  23.0566420  51.5972340   7.6348350  22.7482270  52.2850160
   6.2268900  22.5846170  51.7532240  11.8642090  22.6732230  51.8305360
  11.1757610  22.0113770  51.7655350  12.5848110  22.2270500  52.2753820
  12.4942490  19.2683860  37.8895620  12.7744780  18.4251760  38.2455040
  11.7208220  19.5006970  38.4034370   3.8136980  21.5576250  35.3486620
   4.1162880  21.5643680  34.4405770   4.5531570  21.2074110  35.8454280
   8.6485620  36.3233110  50.3303060   8.5744320  37.2268250  50.6375430
   7.7464460  36.0045010  50.3025130   7.0321910  20.5010870  36.3342820
   6.6843910  19.8234860  35.7545270   7.2334680  20.0400380  37.1486210
   9.1970950  35.4891620  37.9529420  10.0921740  35.8276590  37.9748180
   9.2288580  34.7671030  37.3253700   2.8367110  30.8618670  36.1816420
   3.2741980  31.4048340  36.8374000   3.3214840  30.0365620  36.1912760
   4.6474830  31.9816710  41.2938650   4.3470370  31.8581680  42.1942560
   4.5412320  31.1225300  40.8854380  16.1765300  34.0195290  50.6595620
  15.5767290  34.0787850  49.9159540  16.3059200  33.0800270  50.7892470
  17.4166750  31.7613110  35.9965330  16.5859710  31.8289760  36.4672560
  17.5938580  32.6517230  35.6932190  16.8723210  28.5060590  38.4999530
  17.6342120  29.0757240  38.6059220  16.8877580  27.9387790  39.2707840
  17.8783180  29.3610690  43.3441460  18.2492010  28.5778010  42.9377430
  18.5185110  30.0499790  43.1658760  14.8616940  30.7447270  48.7571780
  14.0476780  31.1744430  49.0197570  15.2691140  31.3565680  48.1440830
  16.9242380  28.7994960  35.6572050  17.1991220  29.7073840  35.5291270
  16.7353120  28.7357490  36.5934040  13.3217990  21.8239810  36.9525680
  13.7402870  21.6370790  36.1122340  13.0154050  20.9718860  37.2628610
  16.8207720  26.7363950  40.6501480  16.4451320  25.9691880  40.2182770
  16.0910840  27.1186650  41.1376410  16.2107340  25.8835470  50.2841000
  15.9793430  25.6548220  49.3838950  16.4711890  26.8035020  50.2385890
  14.6495410  21.1091900  53.0620700  15.5265590  21.1175300  53.4454700
  14.6616250  20.3722740  52.4513050  16.0958680  24.9621440  43.9508720
  16.6196160  24.4684090  43.3198890  16.6818100  25.0971800  44.6956290
  16.2748400  25.0461310  47.4728270  15.3251110  25.0124850  47.5873260
  16.4561410  25.9561420  47.2378040   1.7767000  19.3502320  35.6229550
   2.4995130  19.8911260  35.9410770   2.0491520  19.0765740  34.7471090
  15.5858650  24.2194790  39.8901130  16.0817770  23.9865660  40.6750010
  15.3874720  23.3806630  39.4738770  17.0145810  22.8555740  42.4238810
  16.9045090  22.7011780  43.3621080  17.7753400  22.3276680  42.1814220
  15.3611530  18.7949870  48.8821810  15.9983750  19.4084010  49.2481000
  15.5086420  18.8310530  47.9371040  17.9036080  20.6863660  35.6644950
  18.8285390  20.5544840  35.4563240  17.8811870  20.7656480  36.6181400
  17.9774570  21.4574320  38.2901660  17.1826070  21.3919440  38.8194570
  18.1817850  22.3924960  38.2787010  14.9192990  35.4965870  42.2840050
  15.5152060  35.1750440  41.6074470  15.1771140  35.0237690  43.0753320
   2.8255560  31.9283780  52.4330680   2.7825190  31.5576690  53.3145140
   2.9566570  32.8661350  52.5732500   6.5261590  33.4843370  48.0340400
   6.2852950  33.7517930  47.1470920   7.4664230  33.6549100  48.0891260
   8.7316010  19.9476060  51.7896910   8.6704900  20.5397890  52.5392320
   9.6716390  19.8402020  51.6447170  11.3690570  19.6046120  51.4289200
  11.9830980  19.9225410  50.7670280  11.9140130  19.1194710  52.0485060
  17.7865750  35.5037750  48.8351040  17.2924030  35.9006620  48.1178170
  17.1779040  34.8786960  49.2288320   1.8911830  18.2840380  51.5428260
   2.4394820  18.1028430  50.7794370   1.9567140  17.4934490  52.0784570
   2.6643590  34.8746030  49.5528460   2.0703910  34.7430730  50.2918500
   2.6567430  34.0384170  49.0870560  12.1098610  18.1678260  47.7558490
  11.2358450  18.5013370  47.5531420  12.0009360  17.6951440  48.5810360
  13.0170590  20.3749130  49.1400210  12.6883950  19.5600890  48.7601940
  13.9652890  20.3318940  49.0165900  15.4705200  36.1461170  46.1137780
  15.0108170  36.8976980  45.7395800  14.8417660  35.4267640  46.0552580
   5.9000920  34.4549410  45.2885910   6.4165940  33.8436770  44.7634170
   6.5498300  34.9578190  45.7796920   8.6396420  35.3457900  46.1154890
   8.9274230  35.0912200  45.2387900   9.1519640  34.7935260  46.7060460
   9.8573430  19.0848100  46.6951400   9.0745220  19.5593600  46.9748160
   9.5636360  18.1802930  46.5864580  14.4094500  19.7871200  44.7400490
  14.8502590  19.7316300  43.8922090  14.1402090  20.7029210  44.8110670
  16.2733070  19.4186440  42.7509310  16.2121470  18.4747660  42.6040330
  17.0525100  19.5266530  43.2962770   7.7427650  21.5034850  42.2067430
   6.9302160  21.1291740  41.8663310   8.2469290  20.7479930  42.5088620
  12.2452630  18.1677300  43.4450500  12.8482000  18.7397510  43.9199020
  11.5045620  18.7316740  43.2224400  15.3887230  18.5698860  38.7190780
  15.5837860  19.4682310  38.9858210  14.6017100  18.3385940  39.2123730
   3.5738990  19.9159630  37.7567090   4.1031750  19.1289430  37.6275040
   4.2067310  20.5950820  37.9902620   5.7676830  19.6534770  40.8112480
   5.1379570  18.9522080  40.9782610   5.2281970  20.4138900  40.5945640
   8.7068780  36.2674000  53.4823090   9.6336090  36.0318270  53.5259050
   8.6919210  37.0946000  53.0009120  16.9413840  35.8099570  40.4797340
  17.1166030  35.1237310  39.8358260  16.2435410  36.3346620  40.0874010
   5.8932390  18.9318750  53.2464970   5.6116660  19.4352350  52.4825790
   6.2752090  18.1340500  52.8807100   4.7841490  36.1994410  38.0332650
   5.5160310  35.9153690  37.4856540   5.0435160  35.9607690  38.9232030
   3.9456280  32.3159140  38.0378980   3.3165160  32.7844240  38.5864810
   4.0604110  31.4708360  38.4725170  12.4947850  18.3472330  53.8245440
  12.3813300  18.6666940  54.7196960  13.3117590  18.7484840  53.5282720
  15.2746340  35.4943860  53.3064130  16.0671660  34.9993090  53.0990090
  15.5679490  36.1734000  53.9139740  11.4006000  26.3664800  24.1880180
  11.3200050  25.4519410  23.9171890  10.9870420  26.8631870  23.4819890
   9.5324040  28.1443820  26.0689450   8.7566140  27.6644260  26.3588020
  10.1836970  27.4649470  25.8945610   3.5489870  28.4563630  26.9465210
   2.7174750  28.2012340  27.3461720   4.1570850  28.5274400  27.6823130
  13.5531470  32.5504010  24.8488580  13.0913000  31.7791250  25.1775750
  14.3657020  32.5770080  25.3541030   3.5291130  32.4903720  27.1423230
   3.8319170  31.6001460  26.9633450   4.2734720  33.0473940  26.9145480
   9.7794780  34.8362020  24.4692570   9.1606220  35.2919520  23.8987010
  10.6346560  34.9913480  24.0682270   8.9733030  30.8201010  26.0759610
   8.9041310  29.8790950  25.9148740   9.7352890  30.9102420  26.6482180
  10.0038200  23.6271390  26.3028540  10.3803020  22.7543270  26.1902210
   9.9057710  23.9630090  25.4118980   4.1343210  21.9997020  21.7645980
   4.2409960  22.9000750  22.0714740   3.2235570  21.9514990  21.4740630
  13.7862320  21.1221830  23.2356880  14.6071940  20.6318400  23.2782360
  13.8196400  21.7119490  23.9888720   5.9750940  24.9683390  26.0971160
   6.4829160  25.4664360  26.7376180   6.5064180  24.1918590  25.9210520
  18.0761870  23.1388580  29.8000510  17.3714040  23.5270290  29.2815620
  18.3419790  23.8338870  30.4021440   4.2587040  19.6081950  30.3634580
   4.2605480  20.1254340  29.5580480   3.4291350  19.1312130  30.3404510
  10.6458130  29.7201260  21.8624480  10.0275400  30.1850710  21.2987200
  11.1581380  30.4128740  22.2793990   5.5089890  29.2477130  28.5408080
   5.1759270  29.8746050  29.1829150   5.6856570  29.7739010  27.7609750
  14.0223800  23.0622210  26.0084420  13.3179370  23.3507100  26.5887530
  14.3835960  23.8722320  25.6483980   3.9402370  21.3191910  28.3705030
   4.2819180  22.1633960  28.0758900   3.0018180  21.4675650  28.4870370
   4.7208990  31.2157930  30.3557260   5.3382990  31.8909010  30.0741710
   3.8602110  31.6245910  30.2644760  15.6386580  32.6797340  28.2711900
  14.9550100  33.3496450  28.2628570  16.1780870  32.8777990  27.5056760
  17.0910720  22.5077000  26.3993630  16.1435630  22.5415980  26.5309060
  17.4160710  23.3215950  26.7842990   7.6230260  18.8074180  24.6949620
   7.9305240  18.2521070  23.9785120   6.6930960  18.9418640  24.5122610
  13.1745320  34.5241470  26.9857080  13.1872480  34.1203760  26.1179340
  12.6220540  35.2988760  26.8818510  14.4690740  31.2457690  22.0747250
  14.3587070  30.3032020  22.1996670  14.4658990  31.6073330  22.9610010
  12.5730760  29.4271310  28.3139690  12.9899550  29.2131420  27.4793150
  13.2970580  29.6844100  28.8848310  10.0111020  26.8723010  21.4309740
   9.0840300  26.8060390  21.6598210  10.1635840  27.8103140  21.3164980
   9.9980100  23.1440010  18.4276900   9.0583770  23.3053970  18.5129360
  10.3163360  23.8625690  17.8812890  16.5192860  27.8258530  28.4055930
  15.6911490  27.8951620  27.9306060  17.1143340  28.4112840  27.9371760
  14.0408310  28.4343310  21.9344990  13.4220730  28.0962860  21.2871290
  14.0232760  27.7903070  22.6424180  13.4834870  24.6127850  29.3510800
  13.0706050  25.4381560  29.6050790  12.7510820  24.0272890  29.1587160
   5.6167660  27.3987750  24.2129470   5.2124660  26.6865000  23.7175370
   5.7030780  27.0540990  25.1017510   6.0849360  31.0855310  26.3768680
   5.7877650  30.4800780  25.6976460   7.0349180  31.1232620  26.2658040
   4.3296280  24.1730960  27.9928510   4.8810870  24.2826300  27.2181760
   4.8439790  24.5468560  28.7083740  14.1734970  34.6587180  30.0391780
  13.6965530  35.4659370  29.8464390  13.4896760  34.0065510  30.1917990
   5.1767790  30.8237000  33.0276480   4.2796320  31.0476970  33.2749880
   5.2020660  30.9471940  32.0787880  12.2173010  27.6730120  18.9417740
  12.6566290  26.8352550  18.7955560  12.9301430  28.3059520  19.0281880
   4.0039010  27.6950320  31.6033850   3.8646780  28.5673120  31.9721250
   3.1220370  27.3523130  31.4581790  10.3268390  32.6126190  22.9098980
  10.7664300  33.3550520  22.4954370  10.2655280  32.8552760  23.8337940
   5.8019360  33.6372020  33.8119000   5.7734790  34.0414970  32.9447430
   5.6384330  32.7082380  33.6490600  15.7990150  18.9272930  17.2558780
  15.4862810  19.0199760  18.1557850  16.5602620  19.5053960  17.2056210
   2.3172290  26.2932730  21.7136120   2.1969890  27.0194820  21.1017390
   2.0073180  25.5235640  21.2364030  17.7534180  34.4199120  35.1083170
  18.2293900  34.8982010  35.7872250  18.3741340  34.3516610  34.3828670
  17.1567430  31.6111970  32.2683180  17.2830490  31.3723850  31.3500360
  17.1988810  30.7796510  32.7405260  11.0184170  35.3139970  30.8377990
  11.5328840  35.2247980  31.6400420  10.1753250  35.6599670  31.1305900
  12.9938570  35.5995310  20.2661990  12.8339710  35.3098250  21.1643820
  12.8285280  34.8235440  19.7307220   5.4726950  35.3793840  22.0433610
   5.2969430  34.4629380  21.8301410   4.6182690  35.7381130  22.2831410
  12.6964700  33.1082870  18.8259990  12.0029860  33.1060160  18.1662270
  13.4387560  32.6842190  18.3954160  12.2614630  34.7345580  22.9008480
  12.7171580  33.9534960  23.2147100  12.6007150  35.4452400  23.4449660
  17.0091440  23.6644430  33.2332920  16.3935710  24.1724100  32.7048380
  16.6887860  22.7642760  33.1758860   4.7835950  19.6367800  25.0959790
   4.3404100  20.4177340  24.7644310   5.3420940  19.9597690  25.8030730
   9.0705760  22.5036320  30.6995110   8.6085130  22.7119340  31.5115050
   8.6683870  21.6895670  30.3965780  14.0710270  23.7245270  31.8291770
  13.2203860  23.4251020  32.1500840  13.9112060  23.9687280  30.9175590
  11.1659980  25.2247020  33.9290560  11.4913390  24.3910770  33.5892790
  11.9540310  25.7475540  34.0768890   7.8994770  19.2578500  19.9765620
   7.2748950  19.2538370  20.7018930   7.8124890  18.3909460  19.5801590
   6.8211850  20.1815130  26.9549390   7.1184180  21.0877960  26.8741410
   7.3697410  19.6933910  26.3408960   4.5750170  24.7601370  22.8241040
   4.3491090  24.5438540  23.7287660   3.7942700  25.1929830  22.4787010
  11.8047930  24.7664740  21.4231690  11.2056820  25.4900540  21.2395310
  12.3527540  24.7041520  20.6408140   7.0149380  25.6586950  33.4901310
   6.9192980  24.7181680  33.3401710   7.8581360  25.8802020  33.0949380
  10.4112800  23.4028280  23.4534970  10.8042370  23.7200480  22.6403660
  10.7729650  22.5240160  23.5679490   8.7204970  22.1535590  34.7131830
   8.0303290  21.9607790  35.3477920   9.4637270  22.4370230  35.2456130
  10.9967940  25.9934030  27.5485750  10.2649060  26.5020840  27.8975850
  10.5992280  25.1764010  27.2474530   7.4345330  22.6688230  25.9538240
   7.4381390  22.2278180  25.1042780   8.3296450  22.9905560  26.0610060
   3.2847710  22.5514720  24.9132450   2.9447760  23.0289950  25.6699500
   2.5225030  22.0979840  24.5533550   7.4965480  23.6700310  18.9445000
   7.6178300  23.6286790  19.8930820   7.1113990  24.5324460  18.7891730
  11.4593850  21.4467710  26.9608690  11.4766590  21.8976360  27.8050540
  11.2109430  20.5473350  27.1742130   6.5086980  25.9801450  18.3428300
   5.9403880  25.5319700  17.7164210   7.2175980  26.3394230  17.8093450
  14.8864600  18.8599890  32.7995070  15.2110370  18.1289550  33.3253050
  14.9221110  18.5413530  31.8976060   7.7353300  26.7290010  27.7003650
   8.1023430  26.2548580  28.4464990   7.5458360  27.6031580  28.0411990
   5.5252670  25.7698650  30.0187860   5.2209740  26.6490630  30.2438220
   6.4799130  25.8298440  30.0545300   4.0534460  29.9759640  20.6154710
   3.2796720  29.4357260  20.4553430   4.7829090  29.4566250  20.2772470
  14.8122440  28.9725000  26.4081100  15.5321560  29.4680290  26.0177210
  14.6104260  28.2942890  25.7634970  10.2732380  20.3662960  20.5510490
   9.4596990  19.8676130  20.4755800  10.0794330  21.2061210  20.1346840
  10.1941240  29.0434060  32.2950100  10.1278550  28.1229730  32.0407690
   9.5646380  29.1409500  33.0094740  12.9880770  24.7382610  18.8472650
  13.8760390  25.0499840  18.6723990  12.9585860  23.8654860  18.4553230
   4.0971860  29.6440020  24.2533520   4.6150530  28.8408280  24.1990410
   3.6455880  29.5819160  25.0950350   8.9841360  30.9106300  19.5260820
   9.3257060  31.6548530  19.0304140   8.1554070  31.2237420  19.8885650
   4.7829520  27.0685630  34.0498770   4.4829660  27.2142810  33.1526590
   5.5540760  26.5090920  33.9572160  10.1257970  31.8654630  32.0453900
  10.1402510  30.9335590  31.8272810   9.4183070  31.9514390  32.6843670
  15.2595040  26.0494450  18.3152510  15.1758760  26.4808670  17.4648950
  15.9789230  26.5092800  18.7479330  16.3369180  28.5061970  31.3922480
  15.6117370  29.0990750  31.1951870  16.8644640  28.4985510  30.5935850
  16.2882290  32.9036710  21.0434640  15.6458450  32.2492330  21.3178360
  15.9012950  33.3091800  20.2675310  11.8668770  30.2322140  24.8906330
  12.2192590  29.6350270  24.2307700  10.9831100  29.9066370  25.0614580
   7.9532050  30.9919830  22.2976740   8.6403180  31.5389040  22.6784330
   7.1664470  31.5360560  22.3326350   7.2559260  27.9965860  21.9102100
   7.7122040  28.8071110  22.1362290   6.9047470  27.6789000  22.7420590
   9.5591870  33.5072200  29.1394400  10.2034090  33.7131580  29.8167820
   9.9221310  32.7460600  28.6865250   3.1571040  18.3403510  22.3824620
   3.0285670  18.3321410  23.3309540   2.3333060  18.6786600  22.0315630
  10.8323950  31.5104550  27.8571850  11.4746180  30.8097710  27.9704020
  11.3573300  32.2902990  27.6768740  14.6779670  31.7953170  17.5810990
  14.4517250  31.0783610  18.1735630  14.2875870  31.5465610  16.7432740
  12.6061570  32.3099450  31.0607910  12.9417810  32.8966140  31.7385830
  11.6861910  32.1792160  31.2905700  14.2595920  29.7125110  19.2425150
  13.9717620  30.1737800  20.0303030  15.0548090  29.2522880  19.5109370
   8.4350150  32.3590780  34.2295970   8.1147020  31.6400020  34.7741660
   7.7608510  33.0345850  34.3032030   6.4764320  33.2051230  19.1729120
   6.4674420  33.9380920  18.5573630   5.5562680  32.9582810  19.2656080
  11.6503750  22.5916940  29.5932770  12.0184570  21.7712150  29.9212340
  10.7901950  22.6518830  30.0088420  15.0165780  21.5473880  20.4020330
  14.3878940  21.6519550  19.6878560  14.5217700  21.7670660  21.1914210
   9.4623920  33.2679470  17.8354310   9.5635900  33.0643460  16.9056290
   8.5625660  33.0137750  18.0402090   6.9849810  23.8259830  21.8178210
   6.2765960  24.2946170  22.2591820   7.2694290  23.1681840  22.4523400
   8.6105740  25.2456530  29.8170740   9.1090990  25.7202350  30.4822590
   8.7528690  24.3220050  30.0240770  11.0165240  20.5510490  23.2574000
  10.8933020  20.5696620  22.3083510  11.9649800  20.5989430  23.3772400
   8.1042030  35.7865790  22.5301980   8.3583530  35.7487180  21.6081350
   7.1554510  35.6599120  22.5230230   5.1884830  22.1344910  19.1928920
   6.0375360  22.5715060  19.1269110   4.8216100  22.4465170  20.0200980
  15.8172600  21.4624490  30.6599130  15.3146200  22.2029890  30.9992940
  16.6329260  21.8508490  30.3435920  14.1094610  26.7057670  24.1060490
  13.1684750  26.7207900  24.2808180  14.4238680  25.9193630  24.5520790
   4.0876250  28.3877270  17.6664450   4.8539520  28.2758630  18.2289880
   4.1650940  27.6915240  17.0141220   2.7823010  25.8202340  18.3497340
   2.8626600  24.8729850  18.4614740   3.6742760  26.1509220  18.4558000
  16.1120190  33.8766520  25.7814750  16.2367610  34.6997690  26.2538560
  16.9785750  33.6657250  25.4338900   3.5837720  35.9697730  25.4531880
   4.3200200  35.4213190  25.7240450   3.9678640  36.8353740  25.3137870
   2.5896000  35.1543800  34.6417460   3.3908730  35.4755850  35.0552860
   2.0747820  34.7939380  35.3637370   6.6940030  35.1428040  17.2757450
   7.4868640  35.4316870  16.8239240   6.1744380  34.7120210  16.5969930
  11.4260630  31.2623670  34.5892870  10.8198790  31.2855270  33.8488620
  11.1214740  30.5306710  35.1260120  12.8561000  34.9903960  33.2002280
  13.8082750  34.9061980  33.1502520  12.7089220  35.6545670  33.8736070
  15.7470200  34.3698170  18.6994190  15.4611710  33.9563310  17.8848370
  15.5489750  35.2985880  18.5794710   7.2117430  30.3631450  17.1399800
   7.1068070  29.7483800  17.8661180   7.0441650  29.8397340  16.3562810
   7.3631750  29.0488250  33.1189030   6.5977420  29.6173250  33.0343700
   7.5447710  28.7564460  32.2257260  10.4520160  29.4251480  17.7441790
   9.9030260  29.8720780  18.3884530  11.0739420  28.9200730  18.2679460
  14.5055100  30.7793580  33.6764050  15.2464570  31.1169340  33.1731510
  13.7427780  30.9485640  33.1233820   2.3416890  25.7846850  34.4803580
   2.3822230  25.4860720  35.3888810   3.1962390  26.1854460  34.3211100
   6.1195280  28.3842400  19.6407090   6.5411700  28.2182270  20.4838480
   6.2446120  27.5742630  19.1462230   4.2822700  24.3638950  32.4478070
   3.7519160  23.8729900  31.8201410   4.9510770  24.7923150  31.9136000
   8.6322920  27.4080010  16.8884190   9.1528580  26.6929030  16.5225340
   9.2791320  28.0465880  17.1884700  13.1800760  28.8308410  32.2119260
  13.5941780  28.9853490  33.0609680  12.2451760  28.9563630  32.3745040
  13.6522930  26.1704570  34.2158410  14.2343700  25.4156890  34.1278890
  13.8284700  26.7012010  33.4389890   4.7695000  21.3301320  32.5275360
   4.6751870  20.7122070  31.8026230   4.1892390  22.0567610  32.3005270
   7.5356440  19.8874560  29.5602750   7.0873740  19.9098820  28.7148300
   6.9021640  19.4893580  30.1573050   7.9415990  28.7828890  30.1815190
   8.3604100  29.6261620  30.0091430   7.0224620  28.9200930  29.9521970
  10.2779890  26.5145070  31.5653030  10.3976100  25.9186210  32.3047870
  11.1373890  26.5514760  31.1454330  12.6167790  27.0682260  30.1415540
  12.0903010  27.5924880  29.5380680  12.9599130  27.7009650  30.7725270
   5.0154180  24.4575630  16.5865250   4.8143240  23.5942990  16.9478590
   4.8446230  24.3708990  15.6486850   5.7923410  35.0881900  31.2972920
   5.2544500  35.8127960  30.9781620   6.0457370  34.6112240  30.5070260
   7.0448660  23.0566420  32.8228850   7.6348350  22.7482270  33.5106670
   6.2268900  22.5846170  32.9788750  11.8642090  22.6732230  33.0561870
  11.1757610  22.0113770  32.9911860  12.5848110  22.2270500  33.5010330
  12.4942490  19.2683860  19.1152130  12.7744780  18.4251760  19.4711550
  11.7208220  19.5006970  19.6290880   3.8136980  21.5576250  16.5743130
   4.1162880  21.5643680  15.6662280   4.5531570  21.2074110  17.0710790
   8.6485620  36.3233110  31.5559570   8.5744320  37.2268250  31.8631940
   7.7464460  36.0045010  31.5281640   7.0321910  20.5010870  17.5599330
   6.6843910  19.8234860  16.9801780   7.2334680  20.0400380  18.3742720
   9.1970950  35.4891620  19.1785930  10.0921740  35.8276590  19.2004690
   9.2288580  34.7671030  18.5510210   2.8367110  30.8618670  17.4072930
   3.2741980  31.4048340  18.0630510   3.3214840  30.0365620  17.4169270
   4.6474830  31.9816710  22.5195160   4.3470370  31.8581680  23.4199070
   4.5412320  31.1225300  22.1110890  16.1765300  34.0195290  31.8852130
  15.5767290  34.0787850  31.1416050  16.3059200  33.0800270  32.0148980
  17.4166750  31.7613110  17.2221840  16.5859710  31.8289760  17.6929070
  17.5938580  32.6517230  16.9188700  16.8723210  28.5060590  19.7256040
  17.6342120  29.0757240  19.8315730  16.8877580  27.9387790  20.4964350
  17.8783180  29.3610690  24.5697970  18.2492010  28.5778010  24.1633940
  18.5185110  30.0499790  24.3915270  14.8616940  30.7447270  29.9828290
  14.0476780  31.1744430  30.2454080  15.2691140  31.3565680  29.3697340
  16.9242380  28.7994960  16.8828560  17.1991220  29.7073840  16.7547780
  16.7353120  28.7357490  17.8190550  13.3217990  21.8239810  18.1782190
  13.7402870  21.6370790  17.3378850  13.0154050  20.9718860  18.4885120
  16.8207720  26.7363950  21.8757990  16.4451320  25.9691880  21.4439280
  16.0910840  27.1186650  22.3632920  16.2107340  25.8835470  31.5097510
  15.9793430  25.6548220  30.6095460  16.4711890  26.8035020  31.4642400
  14.6495410  21.1091900  34.2877210  15.5265590  21.1175300  34.6711210
  14.6616250  20.3722740  33.6769560  16.0958680  24.9621440  25.1765230
  16.6196160  24.4684090  24.5455400  16.6818100  25.0971800  25.9212800
  16.2748400  25.0461310  28.6984780  15.3251110  25.0124850  28.8129770
  16.4561410  25.9561420  28.4634550   1.7767000  19.3502320  16.8486060
   2.4995130  19.8911260  17.1667280   2.0491520  19.0765740  15.9727600
  15.5858650  24.2194790  21.1157640  16.0817770  23.9865660  21.9006520
  15.3874720  23.3806630  20.6995280  17.0145810  22.8555740  23.6495320
  16.9045090  22.7011780  24.5877590  17.7753400  22.3276680  23.4070730
  15.3611530  18.7949870  30.1078320  15.9983750  19.4084010  30.4737510
  15.5086420  18.8310530  29.1627550  17.9036080  20.6863660  16.8901460
  18.8285390  20.5544840  16.6819750  17.8811870  20.7656480  17.8437910
  17.9774570  21.4574320  19.5158170  17.1826070  21.3919440  20.0451080
  18.1817850  22.3924960  19.5043520  14.9192990  35.4965870  23.5096560
  15.5152060  35.1750440  22.8330980  15.1771140  35.0237690  24.3009830
   2.8255560  31.9283780  33.6587190   2.7825190  31.5576690  34.5401650
   2.9566570  32.8661350  33.7989010   6.5261590  33.4843370  29.2596910
   6.2852950  33.7517930  28.3727430   7.4664230  33.6549100  29.3147770
   8.7316010  19.9476060  33.0153420   8.6704900  20.5397890  33.7648830
   9.6716390  19.8402020  32.8703680  11.3690570  19.6046120  32.6545710
  11.9830980  19.9225410  31.9926790  11.9140130  19.1194710  33.2741570
  17.7865750  35.5037750  30.0607550  17.2924030  35.9006620  29.3434680
  17.1779040  34.8786960  30.4544830   1.8911830  18.2840380  32.7684770
   2.4394820  18.1028430  32.0050880   1.9567140  17.4934490  33.3041080
   2.6643590  34.8746030  30.7784970   2.0703910  34.7430730  31.5175010
   2.6567430  34.0384170  30.3127070  12.1098610  18.1678260  28.9815000
  11.2358450  18.5013370  28.7787930  12.0009360  17.6951440  29.8066870
  13.0170590  20.3749130  30.3656720  12.6883950  19.5600890  29.9858450
  13.9652890  20.3318940  30.2422410  15.4705200  36.1461170  27.3394290
  15.0108170  36.8976980  26.9652310  14.8417660  35.4267640  27.2809090
   5.9000920  34.4549410  26.5142420   6.4165940  33.8436770  25.9890680
   6.5498300  34.9578190  27.0053430   8.6396420  35.3457900  27.3411400
   8.9274230  35.0912200  26.4644410   9.1519640  34.7935260  27.9316970
   9.8573430  19.0848100  27.9207910   9.0745220  19.5593600  28.2004670
   9.5636360  18.1802930  27.8121090  14.4094500  19.7871200  25.9657000
  14.8502590  19.7316300  25.1178600  14.1402090  20.7029210  26.0367180
  16.2733070  19.4186440  23.9765820  16.2121470  18.4747660  23.8296840
  17.0525100  19.5266530  24.5219280   7.7427650  21.5034850  23.4323940
   6.9302160  21.1291740  23.0919820   8.2469290  20.7479930  23.7345130
  12.2452630  18.1677300  24.6707010  12.8482000  18.7397510  25.1455530
  11.5045620  18.7316740  24.4480910  15.3887230  18.5698860  19.9447290
  15.5837860  19.4682310  20.2114720  14.6017100  18.3385940  20.4380240
   3.5738990  19.9159630  18.9823600   4.1031750  19.1289430  18.8531550
   4.2067310  20.5950820  19.2159130   5.7676830  19.6534770  22.0368990
   5.1379570  18.9522080  22.2039120   5.2281970  20.4138900  21.8202150
   8.7068780  36.2674000  34.7079600   9.6336090  36.0318270  34.7515560
   8.6919210  37.0946000  34.2265630  16.9413840  35.8099570  21.7053850
  17.1166030  35.1237310  21.0614770  16.2435410  36.3346620  21.3130520
   5.8932390  18.9318750  34.4721480   5.6116660  19.4352350  33.7082300
   6.2752090  18.1340500  34.1063610   4.7841490  36.1994410  19.2589160
   5.5160310  35.9153690  18.7113050   5.0435160  35.9607690  20.1488540
   3.9456280  32.3159140  19.2635490   3.3165160  32.7844240  19.8121320
   4.0604110  31.4708360  19.6981680  12.4947850  18.3472330  35.0501950
  12.3813300  18.6666940  35.9453470  13.3117590  18.7484840  34.7539230
  15.2746340  35.4943860  34.5320640  16.0671660  34.9993090  34.3246600
  15.5679490  36.1734000  35.1396250  11.4006000  26.3664800   5.4136690
  11.3200050  25.4519410   5.1428400  10.9870420  26.8631870   4.7076400
   9.5324040  28.1443820   7.2945960   8.7566140  27.6644260   7.5844530
  10.1836970  27.4649470   7.1202120   3.5489870  28.4563630   8.1721720
   2.7174750  28.2012340   8.5718230   4.1570850  28.5274400   8.9079640
  13.5531470  32.5504010   6.0745090  13.0913000  31.7791250   6.4032260
  14.3657020  32.5770080   6.5797540   3.5291130  32.4903720   8.3679740
   3.8319170  31.6001460   8.1889960   4.2734720  33.0473940   8.1401990
   9.7794780  34.8362020   5.6949080   9.1606220  35.2919520   5.1243520
  10.6346560  34.9913480   5.2938780   8.9733030  30.8201010   7.3016120
   8.9041310  29.8790950   7.1405250   9.7352890  30.9102420   7.8738690
  10.0038200  23.6271390   7.5285050  10.3803020  22.7543270   7.4158720
   9.9057710  23.9630090   6.6375490   4.1343210  21.9997020   2.9902490
   4.2409960  22.9000750   3.2971250   3.2235570  21.9514990   2.6997140
  13.7862320  21.1221830   4.4613390  14.6071940  20.6318400   4.5038870
  13.8196400  21.7119490   5.2145230   5.9750940  24.9683390   7.3227670
   6.4829160  25.4664360   7.9632690   6.5064180  24.1918590   7.1467030
  18.0761870  23.1388580  11.0257020  17.3714040  23.5270290  10.5072130
  18.3419790  23.8338870  11.6277950   4.2587040  19.6081950  11.5891090
   4.2605480  20.1254340  10.7836990   3.4291350  19.1312130  11.5661020
  10.6458130  29.7201260   3.0880990  10.0275400  30.1850710   2.5243710
  11.1581380  30.4128740   3.5050500   5.5089890  29.2477130   9.7664590
   5.1759270  29.8746050  10.4085660   5.6856570  29.7739010   8.9866260
  14.0223800  23.0622210   7.2340930  13.3179370  23.3507100   7.8144040
  14.3835960  23.8722320   6.8740490   3.9402370  21.3191910   9.5961540
   4.2819180  22.1633960   9.3015410   3.0018180  21.4675650   9.7126880
   4.7208990  31.2157930  11.5813770   5.3382990  31.8909010  11.2998220
   3.8602110  31.6245910  11.4901270  15.6386580  32.6797340   9.4968410
  14.9550100  33.3496450   9.4885080  16.1780870  32.8777990   8.7313270
  17.0910720  22.5077000   7.6250140  16.1435630  22.5415980   7.7565570
  17.4160710  23.3215950   8.0099500   7.6230260  18.8074180   5.9206130
   7.9305240  18.2521070   5.2041630   6.6930960  18.9418640   5.7379120
  13.1745320  34.5241470   8.2113590  13.1872480  34.1203760   7.3435850
  12.6220540  35.2988760   8.1075020  14.4690740  31.2457690   3.3003760
  14.3587070  30.3032020   3.4253180  14.4658990  31.6073330   4.1866520
  12.5730760  29.4271310   9.5396200  12.9899550  29.2131420   8.7049660
  13.2970580  29.6844100  10.1104820  10.0111020  26.8723010   2.6566250
   9.0840300  26.8060390   2.8854720  10.1635840  27.8103140   2.5421490
  16.5192860  27.8258530   9.6312440  15.6911490  27.8951620   9.1562570
  17.1143340  28.4112840   9.1628270  14.0408310  28.4343310   3.1601500
  13.4220730  28.0962860   2.5127800  14.0232760  27.7903070   3.8680690
  13.4834870  24.6127850  10.5767310  13.0706050  25.4381560  10.8307300
  12.7510820  24.0272890  10.3843670   5.6167660  27.3987750   5.4385980
   5.2124660  26.6865000   4.9431880   5.7030780  27.0540990   6.3274020
   6.0849360  31.0855310   7.6025190   5.7877650  30.4800780   6.9232970
   7.0349180  31.1232620   7.4914550   4.3296280  24.1730960   9.2185020
   4.8810870  24.2826300   8.4438270   4.8439790  24.5468560   9.9340250
  14.1734970  34.6587180  11.2648290  13.6965530  35.4659370  11.0720900
  13.4896760  34.0065510  11.4174500   5.1767790  30.8237000  14.2532990
   4.2796320  31.0476970  14.5006390   5.2020660  30.9471940  13.3044390
   4.0039010  27.6950320  12.8290360   3.8646780  28.5673120  13.1977760
   3.1220370  27.3523130  12.6838300  10.3268390  32.6126190   4.1355490
  10.7664300  33.3550520   3.7210880  10.2655280  32.8552760   5.0594450
   5.8019360  33.6372020  15.0375510   5.7734790  34.0414970  14.1703940
   5.6384330  32.7082380  14.8747110   2.3172290  26.2932730   2.9392630
   2.1969890  27.0194820   2.3273900   2.0073180  25.5235640   2.4620540
  17.7534180  34.4199120  16.3339680  18.2293900  34.8982010  17.0128760
  18.3741340  34.3516610  15.6085180  17.1567430  31.6111970  13.4939690
  17.2830490  31.3723850  12.5756870  17.1988810  30.7796510  13.9661770
  11.0184170  35.3139970  12.0634500  11.5328840  35.2247980  12.8656930
  10.1753250  35.6599670  12.3562410   5.4726950  35.3793840   3.2690120
   5.2969430  34.4629380   3.0557920   4.6182690  35.7381130   3.5087920
  12.2614630  34.7345580   4.1264990  12.7171580  33.9534960   4.4403610
  12.6007150  35.4452400   4.6706170  17.0091440  23.6644430  14.4589430
  16.3935710  24.1724100  13.9304890  16.6887860  22.7642760  14.4015370
   4.7835950  19.6367800   6.3216300   4.3404100  20.4177340   5.9900820
   5.3420940  19.9597690   7.0287240   9.0705760  22.5036320  11.9251620
   8.6085130  22.7119340  12.7371560   8.6683870  21.6895670  11.6222290
  14.0710270  23.7245270  13.0548280  13.2203860  23.4251020  13.3757350
  13.9112060  23.9687280  12.1432100  11.1659980  25.2247020  15.1547070
  11.4913390  24.3910770  14.8149300  11.9540310  25.7475540  15.3025400
   6.8211850  20.1815130   8.1805900   7.1184180  21.0877960   8.0997920
   7.3697410  19.6933910   7.5665470   4.5750170  24.7601370   4.0497550
   4.3491090  24.5438540   4.9544170   3.7942700  25.1929830   3.7043520
  11.8047930  24.7664740   2.6488200  11.2056820  25.4900540   2.4651820
  12.3527540  24.7041520   1.8664650   7.0149380  25.6586950  14.7157820
   6.9192980  24.7181680  14.5658220   7.8581360  25.8802020  14.3205890
  10.4112800  23.4028280   4.6791480  10.8042370  23.7200480   3.8660170
  10.7729650  22.5240160   4.7936000   8.7204970  22.1535590  15.9388340
   8.0303290  21.9607790  16.5734430   9.4637270  22.4370230  16.4712640
  10.9967940  25.9934030   8.7742260  10.2649060  26.5020840   9.1232360
  10.5992280  25.1764010   8.4731040   7.4345330  22.6688230   7.1794750
   7.4381390  22.2278180   6.3299290   8.3296450  22.9905560   7.2866570
   3.2847710  22.5514720   6.1388960   2.9447760  23.0289950   6.8956010
   2.5225030  22.0979840   5.7790060  11.4593850  21.4467710   8.1865200
  11.4766590  21.8976360   9.0307050  11.2109430  20.5473350   8.3998640
  14.8864600  18.8599890  14.0251580  15.2110370  18.1289550  14.5509560
  14.9221110  18.5413530  13.1232570   7.7353300  26.7290010   8.9260160
   8.1023430  26.2548580   9.6721500   7.5458360  27.6031580   9.2668500
   5.5252670  25.7698650  11.2444370   5.2209740  26.6490630  11.4694730
   6.4799130  25.8298440  11.2801810   4.0534460  29.9759640   1.8411220
   3.2796720  29.4357260   1.6809940   4.7829090  29.4566250   1.5028980
  14.8122440  28.9725000   7.6337610  15.5321560  29.4680290   7.2433720
  14.6104260  28.2942890   6.9891480  10.2732380  20.3662960   1.7767000
   9.4596990  19.8676130   1.7012310  10.0794330  21.2061210   1.3603350
  10.1941240  29.0434060  13.5206610  10.1278550  28.1229730  13.2664200
   9.5646380  29.1409500  14.2351250   4.0971860  29.6440020   5.4790030
   4.6150530  28.8408280   5.4246920   3.6455880  29.5819160   6.3206860
   4.7829520  27.0685630  15.2755280   4.4829660  27.2142810  14.3783100
   5.5540760  26.5090920  15.1828670  10.1257970  31.8654630  13.2710410
  10.1402510  30.9335590  13.0529320   9.4183070  31.9514390  13.9100180
  16.3369180  28.5061970  12.6178990  15.6117370  29.0990750  12.4208380
  16.8644640  28.4985510  11.8192360  16.2882290  32.9036710   2.2691150
  15.6458450  32.2492330   2.5434870  15.9012950  33.3091800   1.4931820
  11.8668770  30.2322140   6.1162840  12.2192590  29.6350270   5.4564210
  10.9831100  29.9066370   6.2871090   7.9532050  30.9919830   3.5233250
   8.6403180  31.5389040   3.9040840   7.1664470  31.5360560   3.5582860
   7.2559260  27.9965860   3.1358610   7.7122040  28.8071110   3.3618800
   6.9047470  27.6789000   3.9677100   9.5591870  33.5072200  10.3650910
  10.2034090  33.7131580  11.0424330   9.9221310  32.7460600   9.9121760
   3.1571040  18.3403510   3.6081130   3.0285670  18.3321410   4.5566050
   2.3333060  18.6786600   3.2572140  10.8323950  31.5104550   9.0828360
  11.4746180  30.8097710   9.1960530  11.3573300  32.2902990   8.9025250
  12.6061570  32.3099450  12.2864420  12.9417810  32.8966140  12.9642340
  11.6861910  32.1792160  12.5162210   8.4350150  32.3590780  15.4552480
   8.1147020  31.6400020  15.9998170   7.7608510  33.0345850  15.5288540
  11.6503750  22.5916940  10.8189280  12.0184570  21.7712150  11.1468850
  10.7901950  22.6518830  11.2344930   6.9849810  23.8259830   3.0434720
   6.2765960  24.2946170   3.4848330   7.2694290  23.1681840   3.6779910
   8.6105740  25.2456530  11.0427250   9.1090990  25.7202350  11.7079100
   8.7528690  24.3220050  11.2497280  11.0165240  20.5510490   4.4830510
  10.8933020  20.5696620   3.5340020  11.9649800  20.5989430   4.6028910
   8.1042030  35.7865790   3.7558490   8.3583530  35.7487180   2.8337860
   7.1554510  35.6599120   3.7486740  15.8172600  21.4624490  11.8855640
  15.3146200  22.2029890  12.2249450  16.6329260  21.8508490  11.5692430
  14.1094610  26.7057670   5.3317000  13.1684750  26.7207900   5.5064690
  14.4238680  25.9193630   5.7777300  16.1120190  33.8766520   7.0071260
  16.2367610  34.6997690   7.4795070  16.9785750  33.6657250   6.6595410
   3.5837720  35.9697730   6.6788390   4.3200200  35.4213190   6.9496960
   3.9678640  36.8353740   6.5394380   2.5896000  35.1543800  15.8673970
   3.3908730  35.4755850  16.2809370   2.0747820  34.7939380  16.5893880
  11.4260630  31.2623670  15.8149380  10.8198790  31.2855270  15.0745130
  11.1214740  30.5306710  16.3516630  12.8561000  34.9903960  14.4258790
  13.8082750  34.9061980  14.3759030  12.7089220  35.6545670  15.0992580
   7.3631750  29.0488250  14.3445540   6.5977420  29.6173250  14.2600210
   7.5447710  28.7564460  13.4513770  14.5055100  30.7793580  14.9020560
  15.2464570  31.1169340  14.3988020  13.7427780  30.9485640  14.3490330
   2.3416890  25.7846850  15.7060090   2.3822230  25.4860720  16.6145320
   3.1962390  26.1854460  15.5467610   4.2822700  24.3638950  13.6734580
   3.7519160  23.8729900  13.0457920   4.9510770  24.7923150  13.1392510
  13.1800760  28.8308410  13.4375770  13.5941780  28.9853490  14.2866190
  12.2451760  28.9563630  13.6001550  13.6522930  26.1704570  15.4414920
  14.2343700  25.4156890  15.3535400  13.8284700  26.7012010  14.6646400
   4.7695000  21.3301320  13.7531870   4.6751870  20.7122070  13.0282740
   4.1892390  22.0567610  13.5261780   7.5356440  19.8874560  10.7859260
   7.0873740  19.9098820   9.9404810   6.9021640  19.4893580  11.3829560
   7.9415990  28.7828890  11.4071700   8.3604100  29.6261620  11.2347940
   7.0224620  28.9200930  11.1778480  10.2779890  26.5145070  12.7909540
  10.3976100  25.9186210  13.5304380  11.1373890  26.5514760  12.3710840
  12.6167790  27.0682260  11.3672050  12.0903010  27.5924880  10.7637190
  12.9599130  27.7009650  11.9981780   5.7923410  35.0881900  12.5229430
   5.2544500  35.8127960  12.2038130   6.0457370  34.6112240  11.7326770
   7.0448660  23.0566420  14.0485360   7.6348350  22.7482270  14.7363180
   6.2268900  22.5846170  14.2045260  11.8642090  22.6732230  14.2818380
  11.1757610  22.0113770  14.2168370  12.5848110  22.2270500  14.7266840
   8.6485620  36.3233110  12.7816080   8.5744320  37.2268250  13.0888450
   7.7464460  36.0045010  12.7538150   4.6474830  31.9816710   3.7451670
   4.3470370  31.8581680   4.6455580   4.5412320  31.1225300   3.3367400
  16.1765300  34.0195290  13.1108640  15.5767290  34.0787850  12.3672560
  16.3059200  33.0800270  13.2405490  17.8783180  29.3610690   5.7954480
  18.2492010  28.5778010   5.3890450  18.5185110  30.0499790   5.6171780
  14.8616940  30.7447270  11.2084800  14.0476780  31.1744430  11.4710590
  15.2691140  31.3565680  10.5953850  16.8207720  26.7363950   3.1014500
  16.4451320  25.9691880   2.6695790  16.0910840  27.1186650   3.5889430
  16.2107340  25.8835470  12.7354020  15.9793430  25.6548220  11.8351970
  16.4711890  26.8035020  12.6898910  14.6495410  21.1091900  15.5133720
  15.5265590  21.1175300  15.8967720  14.6616250  20.3722740  14.9026070
  16.0958680  24.9621440   6.4021740  16.6196160  24.4684090   5.7711910
  16.6818100  25.0971800   7.1469310  16.2748400  25.0461310   9.9241290
  15.3251110  25.0124850  10.0386280  16.4561410  25.9561420   9.6891060
  15.5858650  24.2194790   2.3414150  16.0817770  23.9865660   3.1263030
  15.3874720  23.3806630   1.9251790  17.0145810  22.8555740   4.8751830
  16.9045090  22.7011780   5.8134100  17.7753400  22.3276680   4.6327240
  15.3611530  18.7949870  11.3334830  15.9983750  19.4084010  11.6994020
  15.5086420  18.8310530  10.3884060  14.9192990  35.4965870   4.7353070
  15.5152060  35.1750440   4.0587490  15.1771140  35.0237690   5.5266340
   2.8255560  31.9283780  14.8843700   2.7825190  31.5576690  15.7658160
   2.9566570  32.8661350  15.0245520   6.5261590  33.4843370  10.4853420
   6.2852950  33.7517930   9.5983940   7.4664230  33.6549100  10.5404280
   8.7316010  19.9476060  14.2409930   8.6704900  20.5397890  14.9905340
   9.6716390  19.8402020  14.0960190  11.3690570  19.6046120  13.8802220
  11.9830980  19.9225410  13.2183300  11.9140130  19.1194710  14.4998080
  17.7865750  35.5037750  11.2864060  17.2924030  35.9006620  10.5691190
  17.1779040  34.8786960  11.6801340   1.8911830  18.2840380  13.9941280
   2.4394820  18.1028430  13.2307390   1.9567140  17.4934490  14.5297590
   2.6643590  34.8746030  12.0041480   2.0703910  34.7430730  12.7431520
   2.6567430  34.0384170  11.5383580  12.1098610  18.1678260  10.2071510
  11.2358450  18.5013370  10.0044440  12.0009360  17.6951440  11.0323380
  13.0170590  20.3749130  11.5913230  12.6883950  19.5600890  11.2114960
  13.9652890  20.3318940  11.4678920  15.4705200  36.1461170   8.5650800
  15.0108170  36.8976980   8.1908820  14.8417660  35.4267640   8.5065600
   5.9000920  34.4549410   7.7398930   6.4165940  33.8436770   7.2147190
   6.5498300  34.9578190   8.2309940   8.6396420  35.3457900   8.5667910
   8.9274230  35.0912200   7.6900920   9.1519640  34.7935260   9.1573480
   9.8573430  19.0848100   9.1464420   9.0745220  19.5593600   9.4261180
   9.5636360  18.1802930   9.0377600  14.4094500  19.7871200   7.1913510
  14.8502590  19.7316300   6.3435110  14.1402090  20.7029210   7.2623690
  16.2733070  19.4186440   5.2022330  16.2121470  18.4747660   5.0553350
  17.0525100  19.5266530   5.7475790   7.7427650  21.5034850   4.6580450
   6.9302160  21.1291740   4.3176330   8.2469290  20.7479930   4.9601640
  12.2452630  18.1677300   5.8963520  12.8482000  18.7397510   6.3712040
  11.5045620  18.7316740   5.6737420   5.7676830  19.6534770   3.2625500
   5.1379570  18.9522080   3.4295630   5.2281970  20.4138900   3.0458660
   8.7068780  36.2674000  15.9336110   9.6336090  36.0318270  15.9772070
   8.6919210  37.0946000  15.4522140  16.9413840  35.8099570   2.9310360
  17.1166030  35.1237310   2.2871280  16.2435410  36.3346620   2.5387030
   5.8932390  18.9318750  15.6977990   5.6116660  19.4352350  14.9338810
   6.2752090  18.1340500  15.3320120  12.4947850  18.3472330  16.2758460
  12.3813300  18.6666940  17.1709980  13.3117590  18.7484840  15.9795740
  15.2746340  35.4943860  15.7577150  16.0671660  34.9993090  15.5503110
  15.5679490  36.1734000  16.3652760  11.4006000   7.5921310  61.7367160
  11.3200050   6.6775920  61.4658870  10.9870420   8.0888380  61.0306870
   9.5324040   9.3700330  63.6176430   8.7566140   8.8900770  63.9075000
  10.1836970   8.6905980  63.4432590   3.5489870   9.6820140  64.4952190
   2.7174750   9.4268850  64.8948700   4.1570850   9.7530910  65.2310110
  13.5531470  13.7760520  62.3975560  13.0913000  13.0047760  62.7262730
  14.3657020  13.8026590  62.9028010   3.5291130  13.7160230  64.6910210
   3.8319170  12.8257970  64.5120430   4.2734720  14.2730450  64.4632460
   9.7794780  16.0618530  62.0179550   9.1606220  16.5176030  61.4473990
  10.6346560  16.2169990  61.6169250   8.9733030  12.0457520  63.6246590
   8.9041310  11.1047460  63.4635720   9.7352890  12.1358930  64.1969160
  10.0038200   4.8527900  63.8515520  10.3803020   3.9799780  63.7389190
   9.9057710   5.1886600  62.9605960   4.1343210   3.2253530  59.3132960
   4.2409960   4.1257260  59.6201720   3.2235570   3.1771500  59.0227610
  13.7862320   2.3478340  60.7843860  14.6071940   1.8574910  60.8269340
  13.8196400   2.9376000  61.5375700   5.9750940   6.1939900  63.6458140
   6.4829160   6.6920870  64.2863160   6.5064180   5.4175100  63.4697500
  18.0761870   4.3645090  67.3487490  17.3714040   4.7526800  66.8302600
  18.3419790   5.0595380  67.9508420  10.6458130  10.9457770  59.4111460
  10.0275400  11.4107220  58.8474180  11.1581380  11.6385250  59.8280970
   5.5089890  10.4733640  66.0895060   5.1759270  11.1002560  66.7316130
   5.6856570  10.9995520  65.3096730  14.0223800   4.2878720  63.5571400
  13.3179370   4.5763610  64.1374510  14.3835960   5.0978830  63.1970960
   3.9402370   2.5448420  65.9192010   4.2819180   3.3890470  65.6245880
   3.0018180   2.6932160  66.0357350   4.7208990  12.4414440  67.9044240
   5.3382990  13.1165520  67.6228690   3.8602110  12.8502420  67.8131740
  15.6386580  13.9053850  65.8198880  14.9550100  14.5752960  65.8115550
  16.1780870  14.1034500  65.0543740  17.0910720   3.7333510  63.9480610
  16.1435630   3.7672490  64.0796040  17.4160710   4.5472460  64.3329970
  13.1745320  15.7497980  64.5344060  13.1872480  15.3460270  63.6666320
  12.6220540  16.5245270  64.4305490  14.4690740  12.4714200  59.6234230
  14.3587070  11.5288530  59.7483650  14.4658990  12.8329840  60.5096990
  12.5730760  10.6527820  65.8626670  12.9899550  10.4387930  65.0280130
  13.2970580  10.9100610  66.4335290  10.0111020   8.0979520  58.9796720
   9.0840300   8.0316900  59.2085190  10.1635840   9.0359650  58.8651960
   9.9980100   4.3696520  55.9763880   9.0583770   4.5310480  56.0616340
  10.3163360   5.0882200  55.4299870  16.5192860   9.0515040  65.9542910
  15.6911490   9.1208130  65.4793040  17.1143340   9.6369350  65.4858740
  14.0408310   9.6599820  59.4831970  13.4220730   9.3219370  58.8358270
  14.0232760   9.0159580  60.1911160  13.4834870   5.8384360  66.8997780
  13.0706050   6.6638070  67.1537770  12.7510820   5.2529400  66.7074140
   5.6167660   8.6244260  61.7616450   5.2124660   7.9121510  61.2662350
   5.7030780   8.2797500  62.6504490   6.0849360  12.3111820  63.9255660
   5.7877650  11.7057290  63.2463440   7.0349180  12.3489130  63.8145020
   4.3296280   5.3987470  65.5415490   4.8810870   5.5082810  64.7668740
   4.8439790   5.7725070  66.2570720  14.1734970  15.8843690  67.5878760
  13.6965530  16.6915880  67.3951370  13.4896760  15.2322020  67.7404970
  12.2173010   8.8986630  56.4904720  12.6566290   8.0609060  56.3442540
  12.9301430   9.5316030  56.5768860  10.3268390  13.8382700  60.4585960
  10.7664300  14.5807030  60.0441350  10.2655280  14.0809270  61.3824920
   2.3172290   7.5189240  59.2623100   2.1969890   8.2451330  58.6504370
   2.0073180   6.7492150  58.7851010  12.9938570  16.8251820  57.8148970
  12.8339710  16.5354760  58.7130800  12.8285280  16.0491950  57.2794200
   5.4726950  16.6050350  59.5920590   5.2969430  15.6885890  59.3788390
   4.6182690  16.9637640  59.8318390  12.6964700  14.3339380  56.3746970
  12.0029860  14.3316670  55.7149250  13.4387560  13.9098700  55.9441140
  12.2614630  15.9602090  60.4495460  12.7171580  15.1791470  60.7634080
  12.6007150  16.6708910  60.9936640   9.0705760   3.7292830  68.2482090
   8.6085130   3.9375850  69.0602030   8.6683870   2.9152180  67.9452760
   4.5750170   5.9857880  60.3728020   4.3491090   5.7695050  61.2774640
   3.7942700   6.4186340  60.0273990  11.8047930   5.9921250  58.9718670
  11.2056820   6.7157050  58.7882290  12.3527540   5.9298030  58.1895120
  10.4112800   4.6284790  61.0021950  10.8042370   4.9456990  60.1890640
  10.7729650   3.7496670  61.1166470  10.9967940   7.2190540  65.0972730
  10.2649060   7.7277350  65.4462830  10.5992280   6.4020520  64.7961510
   7.4345330   3.8944740  63.5025220   7.4381390   3.4534690  62.6529760
   8.3296450   4.2162070  63.6097040   3.2847710   3.7771230  62.4619430
   2.9447760   4.2546460  63.2186480   2.5225030   3.3236350  62.1020530
   7.4965480   4.8956820  56.4931980   7.6178300   4.8543300  57.4417800
   7.1113990   5.7580970  56.3378710  11.4593850   2.6724220  64.5095670
  11.4766590   3.1232870  65.3537520  11.2109430   1.7729860  64.7229110
   6.5086980   7.2057960  55.8915280   5.9403880   6.7576210  55.2651190
   7.2175980   7.5650740  55.3580430   7.7353300   7.9546520  65.2490630
   8.1023430   7.4805090  65.9951970   7.5458360   8.8288090  65.5898970
   5.5252670   6.9955160  67.5674840   5.2209740   7.8747140  67.7925200
   6.4799130   7.0554950  67.6032280   4.0534460  11.2016150  58.1641690
   3.2796720  10.6613770  58.0040410   4.7829090  10.6822760  57.8259450
  14.8122440  10.1981510  63.9568080  15.5321560  10.6936800  63.5664190
  14.6104260   9.5199400  63.3121950  12.9880770   5.9639120  56.3959630
  13.8760390   6.2756350  56.2210970  12.9585860   5.0911370  56.0040210
   4.0971860  10.8696530  61.8020500   4.6150530  10.0664790  61.7477390
   3.6455880  10.8075670  62.6437330   8.9841360  12.1362810  57.0747800
   9.3257060  12.8805040  56.5791120   8.1554070  12.4493930  57.4372630
  15.2595040   7.2750960  55.8639490  15.1758760   7.7065180  55.0135930
  15.9789230   7.7349310  56.2966310  16.3369180   9.7318480  68.9409460
  15.6117370  10.3247260  68.7438850  16.8644640   9.7242020  68.1422830
  16.2882290  14.1293220  58.5921620  15.6458450  13.4748840  58.8665340
  15.9012950  14.5348310  57.8162290  11.8668770  11.4578650  62.4393310
  12.2192590  10.8606780  61.7794680  10.9831100  11.1322880  62.6101560
   7.9532050  12.2176340  59.8463720   8.6403180  12.7645550  60.2271310
   7.1664470  12.7617070  59.8813330   7.2559260   9.2222370  59.4589080
   7.7122040  10.0327620  59.6849270   6.9047470   8.9045510  60.2907570
   9.5591870  14.7328710  66.6881380  10.2034090  14.9388090  67.3654800
   9.9221310  13.9717110  66.2352230  10.8323950  12.7361060  65.4058830
  11.4746180  12.0354220  65.5191000  11.3573300  13.5159500  65.2255720
  14.6779670  13.0209680  55.1297970  14.4517250  12.3040120  55.7222610
  14.2875870  12.7722120  54.2919720  14.2595920  10.9381620  56.7912130
  13.9717620  11.3994310  57.5790010  15.0548090  10.4779390  57.0596350
   6.4764320  14.4307740  56.7216100   6.4674420  15.1637430  56.1060610
   5.5562680  14.1839320  56.8143060  11.6503750   3.8173450  67.1419750
  12.0184570   2.9968660  67.4699320  10.7901950   3.8775340  67.5575400
  15.0165780   2.7730390  57.9507310  14.3878940   2.8776060  57.2365540
  14.5217700   2.9927170  58.7401190   9.4623920  14.4935980  55.3841290
   9.5635900  14.2899970  54.4543270   8.5625660  14.2394260  55.5889070
   6.9849810   5.0516340  59.3665190   6.2765960   5.5202680  59.8078800
   7.2694290   4.3938350  60.0010380   8.6105740   6.4713040  67.3657720
   9.1090990   6.9458860  68.0309570   8.7528690   5.5476560  67.5727750
  11.0165240   1.7767000  60.8060980  10.8933020   1.7953130  59.8570490
  11.9649800   1.8245940  60.9259380   8.1042030  17.0122300  60.0788960
   8.3583530  16.9743690  59.1568330   7.1554510  16.8855630  60.0717210
   5.1884830   3.3601420  56.7415900   6.0375360   3.7971570  56.6756090
   4.8216100   3.6721680  57.5687960  15.8172600   2.6881000  68.2086110
  15.3146200   3.4286400  68.5479920  16.6329260   3.0765000  67.8922900
  14.1094610   7.9314180  61.6547470  13.1684750   7.9464410  61.8295160
  14.4238680   7.1450140  62.1007770   4.0876250   9.6133780  55.2151430
   4.8539520   9.5015140  55.7776860   4.1650940   8.9171750  54.5628200
   2.7823010   7.0458850  55.8984320   2.8626600   6.0986360  56.0101720
   3.6742760   7.3765730  56.0044980  16.1120190  15.1023030  63.3301730
  16.2367610  15.9254200  63.8025540  16.9785750  14.8913760  62.9825880
   3.5837720  17.1954240  63.0018860   4.3200200  16.6469700  63.2727430
   3.9678640  18.0610250  62.8624850   6.6940030  16.3684550  54.8244430
   7.4868640  16.6573380  54.3726220   6.1744380  15.9376720  54.1456910
  15.7470200  15.5954680  56.2481170  15.4611710  15.1819820  55.4335350
  15.5489750  16.5242390  56.1281690   7.2117430  11.5887960  54.6886780
   7.1068070  10.9740310  55.4148160   7.0441650  11.0653850  53.9049790
  10.4520160  10.6507990  55.2928770   9.9030260  11.0977290  55.9371510
  11.0739420  10.1457240  55.8166440   6.1195280   9.6098910  57.1894070
   6.5411700   9.4438780  58.0325460   6.2446120   8.7999140  56.6949210
   8.6322920   8.6336520  54.4371170   9.1528580   7.9185540  54.0712320
   9.2791320   9.2722390  54.7371680   7.9415990  10.0085400  67.7302170
   8.3604100  10.8518130  67.5578410   7.0224620  10.1457440  67.5008950
  12.6167790   8.2938770  67.6902520  12.0903010   8.8181390  67.0867660
  12.9599130   8.9266160  68.3212250   5.0154180   5.6832140  54.1352230
   4.8143240   4.8199500  54.4965570   4.8446230   5.5965500  53.1973830
   5.7923410  16.3138410  68.8459900   5.2544500  17.0384470  68.5268600
   6.0457370  15.8368750  68.0557240   3.8136980   2.7832760  54.1230110
   4.1162880   2.7900190  53.2149260   4.5531570   2.4330620  54.6197770
   9.1970950  16.7148130  56.7272910  10.0921740  17.0533100  56.7491670
   9.2288580  15.9927540  56.0997190   2.8367110  12.0875180  54.9559910
   3.2741980  12.6304850  55.6117490   3.3214840  11.2622130  54.9656250
   4.6474830  13.2073220  60.0682140   4.3470370  13.0838190  60.9686050
   4.5412320  12.3481810  59.6597870  17.4166750  12.9869620  54.7708820
  16.5859710  13.0546270  55.2416050  17.5938580  13.8773740  54.4675680
  16.8723210   9.7317100  57.2743020  17.6342120  10.3013750  57.3802710
  16.8877580   9.1644300  58.0451330  17.8783180  10.5867200  62.1184950
  18.2492010   9.8034520  61.7120920  18.5185110  11.2756300  61.9402250
  14.8616940  11.9703780  67.5315270  14.0476780  12.4000940  67.7941060
  15.2691140  12.5822190  66.9184320  16.9242380  10.0251470  54.4315540
  17.1991220  10.9330350  54.3034760  16.7353120   9.9614000  55.3677530
  13.3217990   3.0496320  55.7269170  13.7402870   2.8627300  54.8865830
  13.0154050   2.1975370  56.0372100  16.8207720   7.9620460  59.4244970
  16.4451320   7.1948390  58.9926260  16.0910840   8.3443160  59.9119900
  16.2107340   7.1091980  69.0584490  15.9793430   6.8804730  68.1582440
  16.4711890   8.0291530  69.0129380  16.0958680   6.1877950  62.7252210
  16.6196160   5.6940600  62.0942380  16.6818100   6.3228310  63.4699780
  16.2748400   6.2717820  66.2471760  15.3251110   6.2381360  66.3616750
  16.4561410   7.1817930  66.0121530  15.5858650   5.4451300  58.6644620
  16.0817770   5.2122170  59.4493500  15.3874720   4.6063140  58.2482260
  17.0145810   4.0812250  61.1982300  16.9045090   3.9268290  62.1364570
  17.7753400   3.5533190  60.9557710  17.9036080   1.9120170  54.4388440
  18.8285390   1.7801350  54.2306730  17.8811870   1.9912990  55.3924890
  17.9774570   2.6830830  57.0645150  17.1826070   2.6175950  57.5938060
  18.1817850   3.6181470  57.0530500  14.9192990  16.7222380  61.0583540
  15.5152060  16.4006950  60.3817960  15.1771140  16.2494200  61.8496810
   6.5261590  14.7099880  66.8083890   6.2852950  14.9774440  65.9214410
   7.4664230  14.8805610  66.8634750  17.7865750  16.7294260  67.6094530
  17.2924030  17.1263130  66.8921660  17.1779040  16.1043470  68.0031810
   2.6643590  16.1002540  68.3271950   2.0703910  15.9687240  69.0661990
   2.6567430  15.2640680  67.8614050  15.4705200  17.3717680  64.8881270
  15.0108170  18.1233490  64.5139290  14.8417660  16.6524150  64.8296070
   5.9000920  15.6805920  64.0629400   6.4165940  15.0693280  63.5377660
   6.5498300  16.1834700  64.5540410   8.6396420  16.5714410  64.8898380
   8.9274230  16.3168710  64.0131390   9.1519640  16.0191770  65.4803950
   7.7427650   2.7291360  60.9810920   6.9302160   2.3548250  60.6406800
   8.2469290   1.9736440  61.2832110  16.9413840  17.0356080  59.2540830
  17.1166030  16.3493820  58.6101750  16.2435410  17.5603130  58.8617500
   4.7841490  17.4250920  56.8076140   5.5160310  17.1410200  56.2600030
   5.0435160  17.1864200  57.6975520   3.9456280  13.5415650  56.8122470
   3.3165160  14.0100750  57.3608300   4.0604110  12.6964870  57.2468660
  11.4006000   7.5921310  42.9623670  11.3200050   6.6775920  42.6915380
  10.9870420   8.0888380  42.2563380   9.5324040   9.3700330  44.8432940
   8.7566140   8.8900770  45.1331510  10.1836970   8.6905980  44.6689100
   3.5489870   9.6820140  45.7208700   2.7174750   9.4268850  46.1205210
   4.1570850   9.7530910  46.4566620  13.5531470  13.7760520  43.6232070
  13.0913000  13.0047760  43.9519240  14.3657020  13.8026590  44.1284520
   3.5291130  13.7160230  45.9166720   3.8319170  12.8257970  45.7376940
   4.2734720  14.2730450  45.6888970   9.7794780  16.0618530  43.2436060
   9.1606220  16.5176030  42.6730500  10.6346560  16.2169990  42.8425760
   8.9733030  12.0457520  44.8503100   8.9041310  11.1047460  44.6892230
   9.7352890  12.1358930  45.4225670  10.0038200   4.8527900  45.0772030
  10.3803020   3.9799780  44.9645700   9.9057710   5.1886600  44.1862470
   4.1343210   3.2253530  40.5389470   4.2409960   4.1257260  40.8458230
   3.2235570   3.1771500  40.2484120  13.7862320   2.3478340  42.0100370
  14.6071940   1.8574910  42.0525850  13.8196400   2.9376000  42.7632210
   5.9750940   6.1939900  44.8714650   6.4829160   6.6920870  45.5119670
   6.5064180   5.4175100  44.6954010  18.0761870   4.3645090  48.5744000
  17.3714040   4.7526800  48.0559110  18.3419790   5.0595380  49.1764930
  10.6458130  10.9457770  40.6367970  10.0275400  11.4107220  40.0730690
  11.1581380  11.6385250  41.0537480   5.5089890  10.4733640  47.3151570
   5.1759270  11.1002560  47.9572640   5.6856570  10.9995520  46.5353240
  14.0223800   4.2878720  44.7827910  13.3179370   4.5763610  45.3631020
  14.3835960   5.0978830  44.4227470   3.9402370   2.5448420  47.1448520
   4.2819180   3.3890470  46.8502390   3.0018180   2.6932160  47.2613860
   4.7208990  12.4414440  49.1300750   5.3382990  13.1165520  48.8485200
   3.8602110  12.8502420  49.0388250  15.6386580  13.9053850  47.0455390
  14.9550100  14.5752960  47.0372060  16.1780870  14.1034500  46.2800250
  17.0910720   3.7333510  45.1737120  16.1435630   3.7672490  45.3052550
  17.4160710   4.5472460  45.5586480  13.1745320  15.7497980  45.7600570
  13.1872480  15.3460270  44.8922830  12.6220540  16.5245270  45.6562000
  14.4690740  12.4714200  40.8490740  14.3587070  11.5288530  40.9740160
  14.4658990  12.8329840  41.7353500  12.5730760  10.6527820  47.0883180
  12.9899550  10.4387930  46.2536640  13.2970580  10.9100610  47.6591800
  10.0111020   8.0979520  40.2053230   9.0840300   8.0316900  40.4341700
  10.1635840   9.0359650  40.0908470   9.9980100   4.3696520  37.2020390
   9.0583770   4.5310480  37.2872850  10.3163360   5.0882200  36.6556380
  16.5192860   9.0515040  47.1799420  15.6911490   9.1208130  46.7049550
  17.1143340   9.6369350  46.7115250  14.0408310   9.6599820  40.7088480
  13.4220730   9.3219370  40.0614780  14.0232760   9.0159580  41.4167670
  13.4834870   5.8384360  48.1254290  13.0706050   6.6638070  48.3794280
  12.7510820   5.2529400  47.9330650   5.6167660   8.6244260  42.9872960
   5.2124660   7.9121510  42.4918860   5.7030780   8.2797500  43.8761000
   6.0849360  12.3111820  45.1512170   5.7877650  11.7057290  44.4719950
   7.0349180  12.3489130  45.0401530   4.3296280   5.3987470  46.7672000
   4.8810870   5.5082810  45.9925250   4.8439790   5.7725070  47.4827230
  14.1734970  15.8843690  48.8135270  13.6965530  16.6915880  48.6207880
  13.4896760  15.2322020  48.9661480   5.1767790  12.0493510  51.8019970
   4.2796320  12.2733480  52.0493370   5.2020660  12.1728450  50.8531370
  12.2173010   8.8986630  37.7161230  12.6566290   8.0609060  37.5699050
  12.9301430   9.5316030  37.8025370   4.0039010   8.9206830  50.3777340
   3.8646780   9.7929630  50.7464740   3.1220370   8.5779640  50.2325280
  10.3268390  13.8382700  41.6842470  10.7664300  14.5807030  41.2697860
  10.2655280  14.0809270  42.6081430   5.8019360  14.8628530  52.5862490
   5.7734790  15.2671480  51.7190920   5.6384330  13.9338890  52.4234090
   2.3172290   7.5189240  40.4879610   2.1969890   8.2451330  39.8760880
   2.0073180   6.7492150  40.0107520  17.7534180  15.6455630  53.8826660
  18.2293900  16.1238520  54.5615740  18.3741340  15.5773120  53.1572160
  17.1567430  12.8368480  51.0426670  17.2830490  12.5980360  50.1243850
  17.1988810  12.0053020  51.5148750  11.0184170  16.5396480  49.6121480
  11.5328840  16.4504490  50.4143910  10.1753250  16.8856180  49.9049390
  12.9938570  16.8251820  39.0405480  12.8339710  16.5354760  39.9387310
  12.8285280  16.0491950  38.5050710   5.4726950  16.6050350  40.8177100
   5.2969430  15.6885890  40.6044900   4.6182690  16.9637640  41.0574900
  12.6964700  14.3339380  37.6003480  12.0029860  14.3316670  36.9405760
  13.4387560  13.9098700  37.1697650  12.2614630  15.9602090  41.6751970
  12.7171580  15.1791470  41.9890590  12.6007150  16.6708910  42.2193150
  17.0091440   4.8900940  52.0076410  16.3935710   5.3980610  51.4791870
  16.6887860   3.9899270  51.9502350   9.0705760   3.7292830  49.4738600
   8.6085130   3.9375850  50.2858540   8.6683870   2.9152180  49.1709270
  14.0710270   4.9501780  50.6035260  13.2203860   4.6507530  50.9244330
  13.9112060   5.1943790  49.6919080  11.1659980   6.4503530  52.7034050
  11.4913390   5.6167280  52.3636280  11.9540310   6.9732050  52.8512380
   4.5750170   5.9857880  41.5984530   4.3491090   5.7695050  42.5031150
   3.7942700   6.4186340  41.2530500  11.8047930   5.9921250  40.1975180
  11.2056820   6.7157050  40.0138800  12.3527540   5.9298030  39.4151630
   7.0149380   6.8843460  52.2644800   6.9192980   5.9438190  52.1145200
   7.8581360   7.1058530  51.8692870  10.4112800   4.6284790  42.2278460
  10.8042370   4.9456990  41.4147150  10.7729650   3.7496670  42.3422980
   8.7204970   3.3792100  53.4875320   8.0303290   3.1864300  54.1221410
   9.4637270   3.6626740  54.0199620  10.9967940   7.2190540  46.3229240
  10.2649060   7.7277350  46.6719340  10.5992280   6.4020520  46.0218020
   7.4345330   3.8944740  44.7281730   7.4381390   3.4534690  43.8786270
   8.3296450   4.2162070  44.8353550   3.2847710   3.7771230  43.6875940
   2.9447760   4.2546460  44.4442990   2.5225030   3.3236350  43.3277040
   7.4965480   4.8956820  37.7188490   7.6178300   4.8543300  38.6674310
   7.1113990   5.7580970  37.5635220  11.4593850   2.6724220  45.7352180
  11.4766590   3.1232870  46.5794030  11.2109430   1.7729860  45.9485620
   6.5086980   7.2057960  37.1171790   5.9403880   6.7576210  36.4907700
   7.2175980   7.5650740  36.5836940   7.7353300   7.9546520  46.4747140
   8.1023430   7.4805090  47.2208480   7.5458360   8.8288090  46.8155480
   5.5252670   6.9955160  48.7931350   5.2209740   7.8747140  49.0181710
   6.4799130   7.0554950  48.8288790   4.0534460  11.2016150  39.3898200
   3.2796720  10.6613770  39.2296920   4.7829090  10.6822760  39.0515960
  14.8122440  10.1981510  45.1824590  15.5321560  10.6936800  44.7920700
  14.6104260   9.5199400  44.5378460  10.1941240  10.2690570  51.0693590
  10.1278550   9.3486240  50.8151180   9.5646380  10.3666010  51.7838230
  12.9880770   5.9639120  37.6216140  13.8760390   6.2756350  37.4467480
  12.9585860   5.0911370  37.2296720   4.0971860  10.8696530  43.0277010
   4.6150530  10.0664790  42.9733900   3.6455880  10.8075670  43.8693840
   8.9841360  12.1362810  38.3004310   9.3257060  12.8805040  37.8047630
   8.1554070  12.4493930  38.6629140   4.7829520   8.2942140  52.8242260
   4.4829660   8.4399320  51.9270080   5.5540760   7.7347430  52.7315650
  10.1257970  13.0911140  50.8197390  10.1402510  12.1592100  50.6016300
   9.4183070  13.1770900  51.4587160  15.2595040   7.2750960  37.0896000
  15.1758760   7.7065180  36.2392440  15.9789230   7.7349310  37.5222820
  16.3369180   9.7318480  50.1665970  15.6117370  10.3247260  49.9695360
  16.8644640   9.7242020  49.3679340  16.2882290  14.1293220  39.8178130
  15.6458450  13.4748840  40.0921850  15.9012950  14.5348310  39.0418800
  11.8668770  11.4578650  43.6649820  12.2192590  10.8606780  43.0051190
  10.9831100  11.1322880  43.8358070   7.9532050  12.2176340  41.0720230
   8.6403180  12.7645550  41.4527820   7.1664470  12.7617070  41.1069840
   7.2559260   9.2222370  40.6845590   7.7122040  10.0327620  40.9105780
   6.9047470   8.9045510  41.5164080   9.5591870  14.7328710  47.9137890
  10.2034090  14.9388090  48.5911310   9.9221310  13.9717110  47.4608740
  10.8323950  12.7361060  46.6315340  11.4746180  12.0354220  46.7447510
  11.3573300  13.5159500  46.4512230  14.6779670  13.0209680  36.3554480
  14.4517250  12.3040120  36.9479120  14.2875870  12.7722120  35.5176230
  12.6061570  13.5355960  49.8351400  12.9417810  14.1222650  50.5129320
  11.6861910  13.4048670  50.0649190  14.2595920  10.9381620  38.0168640
  13.9717620  11.3994310  38.8046520  15.0548090  10.4779390  38.2852860
   8.4350150  13.5847290  53.0039460   8.1147020  12.8656530  53.5485150
   7.7608510  14.2602360  53.0775520   6.4764320  14.4307740  37.9472610
   6.4674420  15.1637430  37.3317120   5.5562680  14.1839320  38.0399570
  11.6503750   3.8173450  48.3676260  12.0184570   2.9968660  48.6955830
  10.7901950   3.8775340  48.7831910  15.0165780   2.7730390  39.1763820
  14.3878940   2.8776060  38.4622050  14.5217700   2.9927170  39.9657700
   9.4623920  14.4935980  36.6097800   9.5635900  14.2899970  35.6799780
   8.5625660  14.2394260  36.8145580   6.9849810   5.0516340  40.5921700
   6.2765960   5.5202680  41.0335310   7.2694290   4.3938350  41.2266890
   8.6105740   6.4713040  48.5914230   9.1090990   6.9458860  49.2566080
   8.7528690   5.5476560  48.7984260  11.0165240   1.7767000  42.0317490
  10.8933020   1.7953130  41.0827000  11.9649800   1.8245940  42.1515890
   8.1042030  17.0122300  41.3045470   8.3583530  16.9743690  40.3824840
   7.1554510  16.8855630  41.2973720   5.1884830   3.3601420  37.9672410
   6.0375360   3.7971570  37.9012600   4.8216100   3.6721680  38.7944470
  15.8172600   2.6881000  49.4342620  15.3146200   3.4286400  49.7736430
  16.6329260   3.0765000  49.1179410  14.1094610   7.9314180  42.8803980
  13.1684750   7.9464410  43.0551670  14.4238680   7.1450140  43.3264280
   4.0876250   9.6133780  36.4407940   4.8539520   9.5015140  37.0033370
   4.1650940   8.9171750  35.7884710   2.7823010   7.0458850  37.1240830
   2.8626600   6.0986360  37.2358230   3.6742760   7.3765730  37.2301490
  16.1120190  15.1023030  44.5558240  16.2367610  15.9254200  45.0282050
  16.9785750  14.8913760  44.2082390   3.5837720  17.1954240  44.2275370
   4.3200200  16.6469700  44.4983940   3.9678640  18.0610250  44.0881360
   2.5896000  16.3800310  53.4160950   3.3908730  16.7012360  53.8296350
   2.0747820  16.0195890  54.1380860   6.6940030  16.3684550  36.0500940
   7.4868640  16.6573380  35.5982730   6.1744380  15.9376720  35.3713420
  11.4260630  12.4880180  53.3636360  10.8198790  12.5111780  52.6232110
  11.1214740  11.7563220  53.9003610  12.8561000  16.2160470  51.9745770
  13.8082750  16.1318490  51.9246010  12.7089220  16.8802180  52.6479560
  15.7470200  15.5954680  37.4737680  15.4611710  15.1819820  36.6591860
  15.5489750  16.5242390  37.3538200   7.2117430  11.5887960  35.9143290
   7.1068070  10.9740310  36.6404670   7.0441650  11.0653850  35.1306300
   7.3631750  10.2744760  51.8932520   6.5977420  10.8429760  51.8087190
   7.5447710   9.9820970  51.0000750  10.4520160  10.6507990  36.5185280
   9.9030260  11.0977290  37.1628020  11.0739420  10.1457240  37.0422950
  14.5055100  12.0050090  52.4507540  15.2464570  12.3425850  51.9475000
  13.7427780  12.1742150  51.8977310   2.3416890   7.0103360  53.2547070
   2.3822230   6.7117230  54.1632300   3.1962390   7.4110970  53.0954590
   6.1195280   9.6098910  38.4150580   6.5411700   9.4438780  39.2581970
   6.2446120   8.7999140  37.9205720   4.2822700   5.5895460  51.2221560
   3.7519160   5.0986410  50.5944900   4.9510770   6.0179660  50.6879490
   8.6322920   8.6336520  35.6627680   9.1528580   7.9185540  35.2968830
   9.2791320   9.2722390  35.9628190  13.1800760  10.0564920  50.9862750
  13.5941780  10.2110000  51.8353170  12.2451760  10.1820140  51.1488530
  13.6522930   7.3961080  52.9901900  14.2343700   6.6413400  52.9022380
  13.8284700   7.9268520  52.2133380   4.7695000   2.5557830  51.3018850
   4.6751870   1.9378580  50.5769720   4.1892390   3.2824120  51.0748760
   7.9415990  10.0085400  48.9558680   8.3604100  10.8518130  48.7834920
   7.0224620  10.1457440  48.7265460  10.2779890   7.7401580  50.3396520
  10.3976100   7.1442720  51.0791360  11.1373890   7.7771270  49.9197820
  12.6167790   8.2938770  48.9159030  12.0903010   8.8181390  48.3124170
  12.9599130   8.9266160  49.5468760   5.0154180   5.6832140  35.3608740
   4.8143240   4.8199500  35.7222080   4.8446230   5.5965500  34.4230340
   5.7923410  16.3138410  50.0716410   5.2544500  17.0384470  49.7525110
   6.0457370  15.8368750  49.2813750   7.0448660   4.2822930  51.5972340
   7.6348350   3.9738780  52.2850160   6.2268900   3.8102680  51.7532240
  11.8642090   3.8988740  51.8305360  11.1757610   3.2370280  51.7655350
  12.5848110   3.4527010  52.2753820   3.8136980   2.7832760  35.3486620
   4.1162880   2.7900190  34.4405770   4.5531570   2.4330620  35.8454280
   8.6485620  17.5489620  50.3303060   8.5744320  18.4524760  50.6375430
   7.7464460  17.2301520  50.3025130   9.1970950  16.7148130  37.9529420
  10.0921740  17.0533100  37.9748180   9.2288580  15.9927540  37.3253700
   2.8367110  12.0875180  36.1816420   3.2741980  12.6304850  36.8374000
   3.3214840  11.2622130  36.1912760   4.6474830  13.2073220  41.2938650
   4.3470370  13.0838190  42.1942560   4.5412320  12.3481810  40.8854380
  16.1765300  15.2451800  50.6595620  15.5767290  15.3044360  49.9159540
  16.3059200  14.3056780  50.7892470  17.4166750  12.9869620  35.9965330
  16.5859710  13.0546270  36.4672560  17.5938580  13.8773740  35.6932190
  16.8723210   9.7317100  38.4999530  17.6342120  10.3013750  38.6059220
  16.8877580   9.1644300  39.2707840  17.8783180  10.5867200  43.3441460
  18.2492010   9.8034520  42.9377430  18.5185110  11.2756300  43.1658760
  14.8616940  11.9703780  48.7571780  14.0476780  12.4000940  49.0197570
  15.2691140  12.5822190  48.1440830  16.9242380  10.0251470  35.6572050
  17.1991220  10.9330350  35.5291270  16.7353120   9.9614000  36.5934040
  13.3217990   3.0496320  36.9525680  13.7402870   2.8627300  36.1122340
  13.0154050   2.1975370  37.2628610  16.8207720   7.9620460  40.6501480
  16.4451320   7.1948390  40.2182770  16.0910840   8.3443160  41.1376410
  16.2107340   7.1091980  50.2841000  15.9793430   6.8804730  49.3838950
  16.4711890   8.0291530  50.2385890  14.6495410   2.3348410  53.0620700
  15.5265590   2.3431810  53.4454700  14.6616250   1.5979250  52.4513050
  16.0958680   6.1877950  43.9508720  16.6196160   5.6940600  43.3198890
  16.6818100   6.3228310  44.6956290  16.2748400   6.2717820  47.4728270
  15.3251110   6.2381360  47.5873260  16.4561410   7.1817930  47.2378040
  15.5858650   5.4451300  39.8901130  16.0817770   5.2122170  40.6750010
  15.3874720   4.6063140  39.4738770  17.0145810   4.0812250  42.4238810
  16.9045090   3.9268290  43.3621080  17.7753400   3.5533190  42.1814220
  17.9036080   1.9120170  35.6644950  18.8285390   1.7801350  35.4563240
  17.8811870   1.9912990  36.6181400  17.9774570   2.6830830  38.2901660
  17.1826070   2.6175950  38.8194570  18.1817850   3.6181470  38.2787010
  14.9192990  16.7222380  42.2840050  15.5152060  16.4006950  41.6074470
  15.1771140  16.2494200  43.0753320   2.8255560  13.1540290  52.4330680
   2.7825190  12.7833200  53.3145140   2.9566570  14.0917860  52.5732500
   6.5261590  14.7099880  48.0340400   6.2852950  14.9774440  47.1470920
   7.4664230  14.8805610  48.0891260  17.7865750  16.7294260  48.8351040
  17.2924030  17.1263130  48.1178170  17.1779040  16.1043470  49.2288320
   2.6643590  16.1002540  49.5528460   2.0703910  15.9687240  50.2918500
   2.6567430  15.2640680  49.0870560  15.4705200  17.3717680  46.1137780
  15.0108170  18.1233490  45.7395800  14.8417660  16.6524150  46.0552580
   5.9000920  15.6805920  45.2885910   6.4165940  15.0693280  44.7634170
   6.5498300  16.1834700  45.7796920   8.6396420  16.5714410  46.1154890
   8.9274230  16.3168710  45.2387900   9.1519640  16.0191770  46.7060460
   7.7427650   2.7291360  42.2067430   6.9302160   2.3548250  41.8663310
   8.2469290   1.9736440  42.5088620   8.7068780  17.4930510  53.4823090
   9.6336090  17.2574780  53.5259050   8.6919210  18.3202510  53.0009120
  16.9413840  17.0356080  40.4797340  17.1166030  16.3493820  39.8358260
  16.2435410  17.5603130  40.0874010   4.7841490  17.4250920  38.0332650
   5.5160310  17.1410200  37.4856540   5.0435160  17.1864200  38.9232030
   3.9456280  13.5415650  38.0378980   3.3165160  14.0100750  38.5864810
   4.0604110  12.6964870  38.4725170  15.2746340  16.7200370  53.3064130
  16.0671660  16.2249600  53.0990090  15.5679490  17.3990510  53.9139740
  11.4006000   7.5921310  24.1880180  11.3200050   6.6775920  23.9171890
  10.9870420   8.0888380  23.4819890   9.5324040   9.3700330  26.0689450
   8.7566140   8.8900770  26.3588020  10.1836970   8.6905980  25.8945610
   3.5489870   9.6820140  26.9465210   2.7174750   9.4268850  27.3461720
   4.1570850   9.7530910  27.6823130  13.5531470  13.7760520  24.8488580
  13.0913000  13.0047760  25.1775750  14.3657020  13.8026590  25.3541030
   3.5291130  13.7160230  27.1423230   3.8319170  12.8257970  26.9633450
   4.2734720  14.2730450  26.9145480   9.7794780  16.0618530  24.4692570
   9.1606220  16.5176030  23.8987010  10.6346560  16.2169990  24.0682270
   8.9733030  12.0457520  26.0759610   8.9041310  11.1047460  25.9148740
   9.7352890  12.1358930  26.6482180  10.0038200   4.8527900  26.3028540
  10.3803020   3.9799780  26.1902210   9.9057710   5.1886600  25.4118980
   4.1343210   3.2253530  21.7645980   4.2409960   4.1257260  22.0714740
   3.2235570   3.1771500  21.4740630  13.7862320   2.3478340  23.2356880
  14.6071940   1.8574910  23.2782360  13.8196400   2.9376000  23.9888720
   5.9750940   6.1939900  26.0971160   6.4829160   6.6920870  26.7376180
   6.5064180   5.4175100  25.9210520  18.0761870   4.3645090  29.8000510
  17.3714040   4.7526800  29.2815620  18.3419790   5.0595380  30.4021440
  10.6458130  10.9457770  21.8624480  10.0275400  11.4107220  21.2987200
  11.1581380  11.6385250  22.2793990   5.5089890  10.4733640  28.5408080
   5.1759270  11.1002560  29.1829150   5.6856570  10.9995520  27.7609750
  14.0223800   4.2878720  26.0084420  13.3179370   4.5763610  26.5887530
  14.3835960   5.0978830  25.6483980   3.9402370   2.5448420  28.3705030
   4.2819180   3.3890470  28.0758900   3.0018180   2.6932160  28.4870370
   4.7208990  12.4414440  30.3557260   5.3382990  13.1165520  30.0741710
   3.8602110  12.8502420  30.2644760  15.6386580  13.9053850  28.2711900
  14.9550100  14.5752960  28.2628570  16.1780870  14.1034500  27.5056760
  17.0910720   3.7333510  26.3993630  16.1435630   3.7672490  26.5309060
  17.4160710   4.5472460  26.7842990  13.1745320  15.7497980  26.9857080
  13.1872480  15.3460270  26.1179340  12.6220540  16.5245270  26.8818510
  14.4690740  12.4714200  22.0747250  14.3587070  11.5288530  22.1996670
  14.4658990  12.8329840  22.9610010  12.5730760  10.6527820  28.3139690
  12.9899550  10.4387930  27.4793150  13.2970580  10.9100610  28.8848310
  10.0111020   8.0979520  21.4309740   9.0840300   8.0316900  21.6598210
  10.1635840   9.0359650  21.3164980   9.9980100   4.3696520  18.4276900
   9.0583770   4.5310480  18.5129360  10.3163360   5.0882200  17.8812890
  16.5192860   9.0515040  28.4055930  15.6911490   9.1208130  27.9306060
  17.1143340   9.6369350  27.9371760  14.0408310   9.6599820  21.9344990
  13.4220730   9.3219370  21.2871290  14.0232760   9.0159580  22.6424180
  13.4834870   5.8384360  29.3510800  13.0706050   6.6638070  29.6050790
  12.7510820   5.2529400  29.1587160   5.6167660   8.6244260  24.2129470
   5.2124660   7.9121510  23.7175370   5.7030780   8.2797500  25.1017510
   6.0849360  12.3111820  26.3768680   5.7877650  11.7057290  25.6976460
   7.0349180  12.3489130  26.2658040   4.3296280   5.3987470  27.9928510
   4.8810870   5.5082810  27.2181760   4.8439790   5.7725070  28.7083740
  14.1734970  15.8843690  30.0391780  13.6965530  16.6915880  29.8464390
  13.4896760  15.2322020  30.1917990   5.1767790  12.0493510  33.0276480
   4.2796320  12.2733480  33.2749880   5.2020660  12.1728450  32.0787880
  12.2173010   8.8986630  18.9417740  12.6566290   8.0609060  18.7955560
  12.9301430   9.5316030  19.0281880   4.0039010   8.9206830  31.6033850
   3.8646780   9.7929630  31.9721250   3.1220370   8.5779640  31.4581790
  10.3268390  13.8382700  22.9098980  10.7664300  14.5807030  22.4954370
  10.2655280  14.0809270  23.8337940   5.8019360  14.8628530  33.8119000
   5.7734790  15.2671480  32.9447430   5.6384330  13.9338890  33.6490600
   2.3172290   7.5189240  21.7136120   2.1969890   8.2451330  21.1017390
   2.0073180   6.7492150  21.2364030  17.7534180  15.6455630  35.1083170
  18.2293900  16.1238520  35.7872250  18.3741340  15.5773120  34.3828670
  17.1567430  12.8368480  32.2683180  17.2830490  12.5980360  31.3500360
  17.1988810  12.0053020  32.7405260  11.0184170  16.5396480  30.8377990
  11.5328840  16.4504490  31.6400420  10.1753250  16.8856180  31.1305900
  12.9938570  16.8251820  20.2661990  12.8339710  16.5354760  21.1643820
  12.8285280  16.0491950  19.7307220   5.4726950  16.6050350  22.0433610
   5.2969430  15.6885890  21.8301410   4.6182690  16.9637640  22.2831410
  12.6964700  14.3339380  18.8259990  12.0029860  14.3316670  18.1662270
  13.4387560  13.9098700  18.3954160  12.2614630  15.9602090  22.9008480
  12.7171580  15.1791470  23.2147100  12.6007150  16.6708910  23.4449660
  17.0091440   4.8900940  33.2332920  16.3935710   5.3980610  32.7048380
  16.6887860   3.9899270  33.1758860   9.0705760   3.7292830  30.6995110
   8.6085130   3.9375850  31.5115050   8.6683870   2.9152180  30.3965780
  14.0710270   4.9501780  31.8291770  13.2203860   4.6507530  32.1500840
  13.9112060   5.1943790  30.9175590  11.1659980   6.4503530  33.9290560
  11.4913390   5.6167280  33.5892790  11.9540310   6.9732050  34.0768890
   4.5750170   5.9857880  22.8241040   4.3491090   5.7695050  23.7287660
   3.7942700   6.4186340  22.4787010  11.8047930   5.9921250  21.4231690
  11.2056820   6.7157050  21.2395310  12.3527540   5.9298030  20.6408140
   7.0149380   6.8843460  33.4901310   6.9192980   5.9438190  33.3401710
   7.8581360   7.1058530  33.0949380  10.4112800   4.6284790  23.4534970
  10.8042370   4.9456990  22.6403660  10.7729650   3.7496670  23.5679490
   8.7204970   3.3792100  34.7131830   8.0303290   3.1864300  35.3477920
   9.4637270   3.6626740  35.2456130  10.9967940   7.2190540  27.5485750
  10.2649060   7.7277350  27.8975850  10.5992280   6.4020520  27.2474530
   7.4345330   3.8944740  25.9538240   7.4381390   3.4534690  25.1042780
   8.3296450   4.2162070  26.0610060   3.2847710   3.7771230  24.9132450
   2.9447760   4.2546460  25.6699500   2.5225030   3.3236350  24.5533550
   7.4965480   4.8956820  18.9445000   7.6178300   4.8543300  19.8930820
   7.1113990   5.7580970  18.7891730  11.4593850   2.6724220  26.9608690
  11.4766590   3.1232870  27.8050540  11.2109430   1.7729860  27.1742130
   6.5086980   7.2057960  18.3428300   5.9403880   6.7576210  17.7164210
   7.2175980   7.5650740  17.8093450   7.7353300   7.9546520  27.7003650
   8.1023430   7.4805090  28.4464990   7.5458360   8.8288090  28.0411990
   5.5252670   6.9955160  30.0187860   5.2209740   7.8747140  30.2438220
   6.4799130   7.0554950  30.0545300   4.0534460  11.2016150  20.6154710
   3.2796720  10.6613770  20.4553430   4.7829090  10.6822760  20.2772470
  14.8122440  10.1981510  26.4081100  15.5321560  10.6936800  26.0177210
  14.6104260   9.5199400  25.7634970  10.1941240  10.2690570  32.2950100
  10.1278550   9.3486240  32.0407690   9.5646380  10.3666010  33.0094740
  12.9880770   5.9639120  18.8472650  13.8760390   6.2756350  18.6723990
  12.9585860   5.0911370  18.4553230   4.0971860  10.8696530  24.2533520
   4.6150530  10.0664790  24.1990410   3.6455880  10.8075670  25.0950350
   8.9841360  12.1362810  19.5260820   9.3257060  12.8805040  19.0304140
   8.1554070  12.4493930  19.8885650   4.7829520   8.2942140  34.0498770
   4.4829660   8.4399320  33.1526590   5.5540760   7.7347430  33.9572160
  10.1257970  13.0911140  32.0453900  10.1402510  12.1592100  31.8272810
   9.4183070  13.1770900  32.6843670  15.2595040   7.2750960  18.3152510
  15.1758760   7.7065180  17.4648950  15.9789230   7.7349310  18.7479330
  16.3369180   9.7318480  31.3922480  15.6117370  10.3247260  31.1951870
  16.8644640   9.7242020  30.5935850  16.2882290  14.1293220  21.0434640
  15.6458450  13.4748840  21.3178360  15.9012950  14.5348310  20.2675310
  11.8668770  11.4578650  24.8906330  12.2192590  10.8606780  24.2307700
  10.9831100  11.1322880  25.0614580   7.9532050  12.2176340  22.2976740
   8.6403180  12.7645550  22.6784330   7.1664470  12.7617070  22.3326350
   7.2559260   9.2222370  21.9102100   7.7122040  10.0327620  22.1362290
   6.9047470   8.9045510  22.7420590   9.5591870  14.7328710  29.1394400
  10.2034090  14.9388090  29.8167820   9.9221310  13.9717110  28.6865250
  10.8323950  12.7361060  27.8571850  11.4746180  12.0354220  27.9704020
  11.3573300  13.5159500  27.6768740  14.6779670  13.0209680  17.5810990
  14.4517250  12.3040120  18.1735630  14.2875870  12.7722120  16.7432740
  12.6061570  13.5355960  31.0607910  12.9417810  14.1222650  31.7385830
  11.6861910  13.4048670  31.2905700  14.2595920  10.9381620  19.2425150
  13.9717620  11.3994310  20.0303030  15.0548090  10.4779390  19.5109370
   8.4350150  13.5847290  34.2295970   8.1147020  12.8656530  34.7741660
   7.7608510  14.2602360  34.3032030   6.4764320  14.4307740  19.1729120
   6.4674420  15.1637430  18.5573630   5.5562680  14.1839320  19.2656080
  11.6503750   3.8173450  29.5932770  12.0184570   2.9968660  29.9212340
  10.7901950   3.8775340  30.0088420  15.0165780   2.7730390  20.4020330
  14.3878940   2.8776060  19.6878560  14.5217700   2.9927170  21.1914210
   9.4623920  14.4935980  17.8354310   9.5635900  14.2899970  16.9056290
   8.5625660  14.2394260  18.0402090   6.9849810   5.0516340  21.8178210
   6.2765960   5.5202680  22.2591820   7.2694290   4.3938350  22.4523400
   8.6105740   6.4713040  29.8170740   9.1090990   6.9458860  30.4822590
   8.7528690   5.5476560  30.0240770  11.0165240   1.7767000  23.2574000
  10.8933020   1.7953130  22.3083510  11.9649800   1.8245940  23.3772400
   8.1042030  17.0122300  22.5301980   8.3583530  16.9743690  21.6081350
   7.1554510  16.8855630  22.5230230   5.1884830   3.3601420  19.1928920
   6.0375360   3.7971570  19.1269110   4.8216100   3.6721680  20.0200980
  15.8172600   2.6881000  30.6599130  15.3146200   3.4286400  30.9992940
  16.6329260   3.0765000  30.3435920  14.1094610   7.9314180  24.1060490
  13.1684750   7.9464410  24.2808180  14.4238680   7.1450140  24.5520790
   4.0876250   9.6133780  17.6664450   4.8539520   9.5015140  18.2289880
   4.1650940   8.9171750  17.0141220   2.7823010   7.0458850  18.3497340
   2.8626600   6.0986360  18.4614740   3.6742760   7.3765730  18.4558000
  16.1120190  15.1023030  25.7814750  16.2367610  15.9254200  26.2538560
  16.9785750  14.8913760  25.4338900   3.5837720  17.1954240  25.4531880
   4.3200200  16.6469700  25.7240450   3.9678640  18.0610250  25.3137870
   2.5896000  16.3800310  34.6417460   3.3908730  16.7012360  35.0552860
   2.0747820  16.0195890  35.3637370   6.6940030  16.3684550  17.2757450
   7.4868640  16.6573380  16.8239240   6.1744380  15.9376720  16.5969930
  11.4260630  12.4880180  34.5892870  10.8198790  12.5111780  33.8488620
  11.1214740  11.7563220  35.1260120  12.8561000  16.2160470  33.2002280
  13.8082750  16.1318490  33.1502520  12.7089220  16.8802180  33.8736070
  15.7470200  15.5954680  18.6994190  15.4611710  15.1819820  17.8848370
  15.5489750  16.5242390  18.5794710   7.2117430  11.5887960  17.1399800
   7.1068070  10.9740310  17.8661180   7.0441650  11.0653850  16.3562810
   7.3631750  10.2744760  33.1189030   6.5977420  10.8429760  33.0343700
   7.5447710   9.9820970  32.2257260  10.4520160  10.6507990  17.7441790
   9.9030260  11.0977290  18.3884530  11.0739420  10.1457240  18.2679460
  14.5055100  12.0050090  33.6764050  15.2464570  12.3425850  33.1731510
  13.7427780  12.1742150  33.1233820   2.3416890   7.0103360  34.4803580
   2.3822230   6.7117230  35.3888810   3.1962390   7.4110970  34.3211100
   6.1195280   9.6098910  19.6407090   6.5411700   9.4438780  20.4838480
   6.2446120   8.7999140  19.1462230   4.2822700   5.5895460  32.4478070
   3.7519160   5.0986410  31.8201410   4.9510770   6.0179660  31.9136000
   8.6322920   8.6336520  16.8884190   9.1528580   7.9185540  16.5225340
   9.2791320   9.2722390  17.1884700  13.1800760  10.0564920  32.2119260
  13.5941780  10.2110000  33.0609680  12.2451760  10.1820140  32.3745040
  13.6522930   7.3961080  34.2158410  14.2343700   6.6413400  34.1278890
  13.8284700   7.9268520  33.4389890   4.7695000   2.5557830  32.5275360
   4.6751870   1.9378580  31.8026230   4.1892390   3.2824120  32.3005270
   7.9415990  10.0085400  30.1815190   8.3604100  10.8518130  30.0091430
   7.0224620  10.1457440  29.9521970  10.2779890   7.7401580  31.5653030
  10.3976100   7.1442720  32.3047870  11.1373890   7.7771270  31.1454330
  12.6167790   8.2938770  30.1415540  12.0903010   8.8181390  29.5380680
  12.9599130   8.9266160  30.7725270   5.0154180   5.6832140  16.5865250
   4.8143240   4.8199500  16.9478590   4.8446230   5.5965500  15.6486850
   5.7923410  16.3138410  31.2972920   5.2544500  17.0384470  30.9781620
   6.0457370  15.8368750  30.5070260   7.0448660   4.2822930  32.8228850
   7.6348350   3.9738780  33.5106670   6.2268900   3.8102680  32.9788750
  11.8642090   3.8988740  33.0561870  11.1757610   3.2370280  32.9911860
  12.5848110   3.4527010  33.5010330   3.8136980   2.7832760  16.5743130
   4.1162880   2.7900190  15.6662280   4.5531570   2.4330620  17.0710790
   8.6485620  17.5489620  31.5559570   8.5744320  18.4524760  31.8631940
   7.7464460  17.2301520  31.5281640   9.1970950  16.7148130  19.1785930
  10.0921740  17.0533100  19.2004690   9.2288580  15.9927540  18.5510210
   2.8367110  12.0875180  17.4072930   3.2741980  12.6304850  18.0630510
   3.3214840  11.2622130  17.4169270   4.6474830  13.2073220  22.5195160
   4.3470370  13.0838190  23.4199070   4.5412320  12.3481810  22.1110890
  16.1765300  15.2451800  31.8852130  15.5767290  15.3044360  31.1416050
  16.3059200  14.3056780  32.0148980  17.4166750  12.9869620  17.2221840
  16.5859710  13.0546270  17.6929070  17.5938580  13.8773740  16.9188700
  16.8723210   9.7317100  19.7256040  17.6342120  10.3013750  19.8315730
  16.8877580   9.1644300  20.4964350  17.8783180  10.5867200  24.5697970
  18.2492010   9.8034520  24.1633940  18.5185110  11.2756300  24.3915270
  14.8616940  11.9703780  29.9828290  14.0476780  12.4000940  30.2454080
  15.2691140  12.5822190  29.3697340  16.9242380  10.0251470  16.8828560
  17.1991220  10.9330350  16.7547780  16.7353120   9.9614000  17.8190550
  13.3217990   3.0496320  18.1782190  13.7402870   2.8627300  17.3378850
  13.0154050   2.1975370  18.4885120  16.8207720   7.9620460  21.8757990
  16.4451320   7.1948390  21.4439280  16.0910840   8.3443160  22.3632920
  16.2107340   7.1091980  31.5097510  15.9793430   6.8804730  30.6095460
  16.4711890   8.0291530  31.4642400  14.6495410   2.3348410  34.2877210
  15.5265590   2.3431810  34.6711210  14.6616250   1.5979250  33.6769560
  16.0958680   6.1877950  25.1765230  16.6196160   5.6940600  24.5455400
  16.6818100   6.3228310  25.9212800  16.2748400   6.2717820  28.6984780
  15.3251110   6.2381360  28.8129770  16.4561410   7.1817930  28.4634550
  15.5858650   5.4451300  21.1157640  16.0817770   5.2122170  21.9006520
  15.3874720   4.6063140  20.6995280  17.0145810   4.0812250  23.6495320
  16.9045090   3.9268290  24.5877590  17.7753400   3.5533190  23.4070730
  17.9036080   1.9120170  16.8901460  18.8285390   1.7801350  16.6819750
  17.8811870   1.9912990  17.8437910  17.9774570   2.6830830  19.5158170
  17.1826070   2.6175950  20.0451080  18.1817850   3.6181470  19.5043520
  14.9192990  16.7222380  23.5096560  15.5152060  16.4006950  22.8330980
  15.1771140  16.2494200  24.3009830   2.8255560  13.1540290  33.6587190
   2.7825190  12.7833200  34.5401650   2.9566570  14.0917860  33.7989010
   6.5261590  14.7099880  29.2596910   6.2852950  14.9774440  28.3727430
   7.4664230  14.8805610  29.3147770  17.7865750  16.7294260  30.0607550
  17.2924030  17.1263130  29.3434680  17.1779040  16.1043470  30.4544830
   2.6643590  16.1002540  30.7784970   2.0703910  15.9687240  31.5175010
   2.6567430  15.2640680  30.3127070  15.4705200  17.3717680  27.3394290
  15.0108170  18.1233490  26.9652310  14.8417660  16.6524150  27.2809090
   5.9000920  15.6805920  26.5142420   6.4165940  15.0693280  25.9890680
   6.5498300  16.1834700  27.0053430   8.6396420  16.5714410  27.3411400
   8.9274230  16.3168710  26.4644410   9.1519640  16.0191770  27.9316970
   7.7427650   2.7291360  23.4323940   6.9302160   2.3548250  23.0919820
   8.2469290   1.9736440  23.7345130   8.7068780  17.4930510  34.7079600
   9.6336090  17.2574780  34.7515560   8.6919210  18.3202510  34.2265630
  16.9413840  17.0356080  21.7053850  17.1166030  16.3493820  21.0614770
  16.2435410  17.5603130  21.3130520   4.7841490  17.4250920  19.2589160
   5.5160310  17.1410200  18.7113050   5.0435160  17.1864200  20.1488540
   3.9456280  13.5415650  19.2635490   3.3165160  14.0100750  19.8121320
   4.0604110  12.6964870  19.6981680  15.2746340  16.7200370  34.5320640
  16.0671660  16.2249600  34.3246600  15.5679490  17.3990510  35.1396250
  11.4006000   7.5921310   5.4136690  11.3200050   6.6775920   5.1428400
  10.9870420   8.0888380   4.7076400   9.5324040   9.3700330   7.2945960
   8.7566140   8.8900770   7.5844530  10.1836970   8.6905980   7.1202120
   3.5489870   9.6820140   8.1721720   2.7174750   9.4268850   8.5718230
   4.1570850   9.7530910   8.9079640  13.5531470  13.7760520   6.0745090
  13.0913000  13.0047760   6.4032260  14.3657020  13.8026590   6.5797540
   3.5291130  13.7160230   8.3679740   3.8319170  12.8257970   8.1889960
   4.2734720  14.2730450   8.1401990   9.7794780  16.0618530   5.6949080
   9.1606220  16.5176030   5.1243520  10.6346560  16.2169990   5.2938780
   8.9733030  12.0457520   7.3016120   8.9041310  11.1047460   7.1405250
   9.7352890  12.1358930   7.8738690  10.0038200   4.8527900   7.5285050
  10.3803020   3.9799780   7.4158720   9.9057710   5.1886600   6.6375490
   4.1343210   3.2253530   2.9902490   4.2409960   4.1257260   3.2971250
   3.2235570   3.1771500   2.6997140  13.7862320   2.3478340   4.4613390
  14.6071940   1.8574910   4.5038870  13.8196400   2.9376000   5.2145230
   5.9750940   6.1939900   7.3227670   6.4829160   6.6920870   7.9632690
   6.5064180   5.4175100   7.1467030  18.0761870   4.3645090  11.0257020
  17.3714040   4.7526800  10.5072130  18.3419790   5.0595380  11.6277950
  10.6458130  10.9457770   3.0880990  10.0275400  11.4107220   2.5243710
  11.1581380  11.6385250   3.5050500   5.5089890  10.4733640   9.7664590
   5.1759270  11.1002560  10.4085660   5.6856570  10.9995520   8.9866260
  14.0223800   4.2878720   7.2340930  13.3179370   4.5763610   7.8144040
  14.3835960   5.0978830   6.8740490   3.9402370   2.5448420   9.5961540
   4.2819180   3.3890470   9.3015410   3.0018180   2.6932160   9.7126880
   4.7208990  12.4414440  11.5813770   5.3382990  13.1165520  11.2998220
   3.8602110  12.8502420  11.4901270  15.6386580  13.9053850   9.4968410
  14.9550100  14.5752960   9.4885080  16.1780870  14.1034500   8.7313270
  17.0910720   3.7333510   7.6250140  16.1435630   3.7672490   7.7565570
  17.4160710   4.5472460   8.0099500  13.1745320  15.7497980   8.2113590
  13.1872480  15.3460270   7.3435850  12.6220540  16.5245270   8.1075020
  14.4690740  12.4714200   3.3003760  14.3587070  11.5288530   3.4253180
  14.4658990  12.8329840   4.1866520  12.5730760  10.6527820   9.5396200
  12.9899550  10.4387930   8.7049660  13.2970580  10.9100610  10.1104820
  10.0111020   8.0979520   2.6566250   9.0840300   8.0316900   2.8854720
  10.1635840   9.0359650   2.5421490  16.5192860   9.0515040   9.6312440
  15.6911490   9.1208130   9.1562570  17.1143340   9.6369350   9.1628270
  14.0408310   9.6599820   3.1601500  13.4220730   9.3219370   2.5127800
  14.0232760   9.0159580   3.8680690  13.4834870   5.8384360  10.5767310
  13.0706050   6.6638070  10.8307300  12.7510820   5.2529400  10.3843670
   5.6167660   8.6244260   5.4385980   5.2124660   7.9121510   4.9431880
   5.7030780   8.2797500   6.3274020   6.0849360  12.3111820   7.6025190
   5.7877650  11.7057290   6.9232970   7.0349180  12.3489130   7.4914550
   4.3296280   5.3987470   9.2185020   4.8810870   5.5082810   8.4438270
   4.8439790   5.7725070   9.9340250  14.1734970  15.8843690  11.2648290
  13.6965530  16.6915880  11.0720900  13.4896760  15.2322020  11.4174500
   5.1767790  12.0493510  14.2532990   4.2796320  12.2733480  14.5006390
   5.2020660  12.1728450  13.3044390   4.0039010   8.9206830  12.8290360
   3.8646780   9.7929630  13.1977760   3.1220370   8.5779640  12.6838300
  10.3268390  13.8382700   4.1355490  10.7664300  14.5807030   3.7210880
  10.2655280  14.0809270   5.0594450   5.8019360  14.8628530  15.0375510
   5.7734790  15.2671480  14.1703940   5.6384330  13.9338890  14.8747110
   2.3172290   7.5189240   2.9392630   2.1969890   8.2451330   2.3273900
   2.0073180   6.7492150   2.4620540  17.7534180  15.6455630  16.3339680
  18.2293900  16.1238520  17.0128760  18.3741340  15.5773120  15.6085180
  17.1567430  12.8368480  13.4939690  17.2830490  12.5980360  12.5756870
  17.1988810  12.0053020  13.9661770  11.0184170  16.5396480  12.0634500
  11.5328840  16.4504490  12.8656930  10.1753250  16.8856180  12.3562410
   5.4726950  16.6050350   3.2690120   5.2969430  15.6885890   3.0557920
   4.6182690  16.9637640   3.5087920  12.2614630  15.9602090   4.1264990
  12.7171580  15.1791470   4.4403610  12.6007150  16.6708910   4.6706170
  17.0091440   4.8900940  14.4589430  16.3935710   5.3980610  13.9304890
  16.6887860   3.9899270  14.4015370   9.0705760   3.7292830  11.9251620
   8.6085130   3.9375850  12.7371560   8.6683870   2.9152180  11.6222290
  14.0710270   4.9501780  13.0548280  13.2203860   4.6507530  13.3757350
  13.9112060   5.1943790  12.1432100  11.1659980   6.4503530  15.1547070
  11.4913390   5.6167280  14.8149300  11.9540310   6.9732050  15.3025400
   4.5750170   5.9857880   4.0497550   4.3491090   5.7695050   4.9544170
   3.7942700   6.4186340   3.7043520  11.8047930   5.9921250   2.6488200
  11.2056820   6.7157050   2.4651820  12.3527540   5.9298030   1.8664650
   7.0149380   6.8843460  14.7157820   6.9192980   5.9438190  14.5658220
   7.8581360   7.1058530  14.3205890  10.4112800   4.6284790   4.6791480
  10.8042370   4.9456990   3.8660170  10.7729650   3.7496670   4.7936000
   8.7204970   3.3792100  15.9388340   8.0303290   3.1864300  16.5734430
   9.4637270   3.6626740  16.4712640  10.9967940   7.2190540   8.7742260
  10.2649060   7.7277350   9.1232360  10.5992280   6.4020520   8.4731040
   7.4345330   3.8944740   7.1794750   7.4381390   3.4534690   6.3299290
   8.3296450   4.2162070   7.2866570   3.2847710   3.7771230   6.1388960
   2.9447760   4.2546460   6.8956010   2.5225030   3.3236350   5.7790060
  11.4593850   2.6724220   8.1865200  11.4766590   3.1232870   9.0307050
  11.2109430   1.7729860   8.3998640   7.7353300   7.9546520   8.9260160
   8.1023430   7.4805090   9.6721500   7.5458360   8.8288090   9.2668500
   5.5252670   6.9955160  11.2444370   5.2209740   7.8747140  11.4694730
   6.4799130   7.0554950  11.2801810   4.0534460  11.2016150   1.8411220
   3.2796720  10.6613770   1.6809940   4.7829090  10.6822760   1.5028980
  14.8122440  10.1981510   7.6337610  15.5321560  10.6936800   7.2433720
  14.6104260   9.5199400   6.9891480  10.1941240  10.2690570  13.5206610
  10.1278550   9.3486240  13.2664200   9.5646380  10.3666010  14.2351250
   4.0971860  10.8696530   5.4790030   4.6150530  10.0664790   5.4246920
   3.6455880  10.8075670   6.3206860   4.7829520   8.2942140  15.2755280
   4.4829660   8.4399320  14.3783100   5.5540760   7.7347430  15.1828670
  10.1257970  13.0911140  13.2710410  10.1402510  12.1592100  13.0529320
   9.4183070  13.1770900  13.9100180  16.3369180   9.7318480  12.6178990
  15.6117370  10.3247260  12.4208380  16.8644640   9.7242020  11.8192360
  16.2882290  14.1293220   2.2691150  15.6458450  13.4748840   2.5434870
  15.9012950  14.5348310   1.4931820  11.8668770  11.4578650   6.1162840
  12.2192590  10.8606780   5.4564210  10.9831100  11.1322880   6.2871090
   7.9532050  12.2176340   3.5233250   8.6403180  12.7645550   3.9040840
   7.1664470  12.7617070   3.5582860   7.2559260   9.2222370   3.1358610
   7.7122040  10.0327620   3.3618800   6.9047470   8.9045510   3.9677100
   9.5591870  14.7328710  10.3650910  10.2034090  14.9388090  11.0424330
   9.9221310  13.9717110   9.9121760  10.8323950  12.7361060   9.0828360
  11.4746180  12.0354220   9.1960530  11.3573300  13.5159500   8.9025250
  12.6061570  13.5355960  12.2864420  12.9417810  14.1222650  12.9642340
  11.6861910  13.4048670  12.5162210   8.4350150  13.5847290  15.4552480
   8.1147020  12.8656530  15.9998170   7.7608510  14.2602360  15.5288540
  11.6503750   3.8173450  10.8189280  12.0184570   2.9968660  11.1468850
  10.7901950   3.8775340  11.2344930   6.9849810   5.0516340   3.0434720
   6.2765960   5.5202680   3.4848330   7.2694290   4.3938350   3.6779910
   8.6105740   6.4713040  11.0427250   9.1090990   6.9458860  11.7079100
   8.7528690   5.5476560  11.2497280  11.0165240   1.7767000   4.4830510
  10.8933020   1.7953130   3.5340020  11.9649800   1.8245940   4.6028910
   8.1042030  17.0122300   3.7558490   8.3583530  16.9743690   2.8337860
   7.1554510  16.8855630   3.7486740  15.8172600   2.6881000  11.8855640
  15.3146200   3.4286400  12.2249450  16.6329260   3.0765000  11.5692430
  14.1094610   7.9314180   5.3317000  13.1684750   7.9464410   5.5064690
  14.4238680   7.1450140   5.7777300  16.1120190  15.1023030   7.0071260
  16.2367610  15.9254200   7.4795070  16.9785750  14.8913760   6.6595410
   3.5837720  17.1954240   6.6788390   4.3200200  16.6469700   6.9496960
   3.9678640  18.0610250   6.5394380   2.5896000  16.3800310  15.8673970
   3.3908730  16.7012360  16.2809370   2.0747820  16.0195890  16.5893880
  11.4260630  12.4880180  15.8149380  10.8198790  12.5111780  15.0745130
  11.1214740  11.7563220  16.3516630  12.8561000  16.2160470  14.4258790
  13.8082750  16.1318490  14.3759030  12.7089220  16.8802180  15.0992580
   7.3631750  10.2744760  14.3445540   6.5977420  10.8429760  14.2600210
   7.5447710   9.9820970  13.4513770  14.5055100  12.0050090  14.9020560
  15.2464570  12.3425850  14.3988020  13.7427780  12.1742150  14.3490330
   2.3416890   7.0103360  15.7060090   2.3822230   6.7117230  16.6145320
   3.1962390   7.4110970  15.5467610   4.2822700   5.5895460  13.6734580
   3.7519160   5.0986410  13.0457920   4.9510770   6.0179660  13.1392510
  13.1800760  10.0564920  13.4375770  13.5941780  10.2110000  14.2866190
  12.2451760  10.1820140  13.6001550  13.6522930   7.3961080  15.4414920
  14.2343700   6.6413400  15.3535400  13.8284700   7.9268520  14.6646400
   4.7695000   2.5557830  13.7531870   4.6751870   1.9378580  13.0282740
   4.1892390   3.2824120  13.5261780   7.9415990  10.0085400  11.4071700
   8.3604100  10.8518130  11.2347940   7.0224620  10.1457440  11.1778480
  10.2779890   7.7401580  12.7909540  10.3976100   7.1442720  13.5304380
  11.1373890   7.7771270  12.3710840  12.6167790   8.2938770  11.3672050
  12.0903010   8.8181390  10.7637190  12.9599130   8.9266160  11.9981780
   5.7923410  16.3138410  12.5229430   5.2544500  17.0384470  12.2038130
   6.0457370  15.8368750  11.7326770   7.0448660   4.2822930  14.0485360
   7.6348350   3.9738780  14.7363180   6.2268900   3.8102680  14.2045260
  11.8642090   3.8988740  14.2818380  11.1757610   3.2370280  14.2168370
  12.5848110   3.4527010  14.7266840   8.6485620  17.5489620  12.7816080
   8.5744320  18.4524760  13.0888450   7.7464460  17.2301520  12.7538150
   4.6474830  13.2073220   3.7451670   4.3470370  13.0838190   4.6455580
   4.5412320  12.3481810   3.3367400  16.1765300  15.2451800  13.1108640
  15.5767290  15.3044360  12.3672560  16.3059200  14.3056780  13.2405490
  17.8783180  10.5867200   5.7954480  18.2492010   9.8034520   5.3890450
  18.5185110  11.2756300   5.6171780  14.8616940  11.9703780  11.2084800
  14.0476780  12.4000940  11.4710590  15.2691140  12.5822190  10.5953850
  16.8207720   7.9620460   3.1014500  16.4451320   7.1948390   2.6695790
  16.0910840   8.3443160   3.5889430  16.2107340   7.1091980  12.7354020
  15.9793430   6.8804730  11.8351970  16.4711890   8.0291530  12.6898910
  14.6495410   2.3348410  15.5133720  15.5265590   2.3431810  15.8967720
  14.6616250   1.5979250  14.9026070  16.0958680   6.1877950   6.4021740
  16.6196160   5.6940600   5.7711910  16.6818100   6.3228310   7.1469310
  16.2748400   6.2717820   9.9241290  15.3251110   6.2381360  10.0386280
  16.4561410   7.1817930   9.6891060  15.5858650   5.4451300   2.3414150
  16.0817770   5.2122170   3.1263030  15.3874720   4.6063140   1.9251790
  17.0145810   4.0812250   4.8751830  16.9045090   3.9268290   5.8134100
  17.7753400   3.5533190   4.6327240  14.9192990  16.7222380   4.7353070
  15.5152060  16.4006950   4.0587490  15.1771140  16.2494200   5.5266340
   2.8255560  13.1540290  14.8843700   2.7825190  12.7833200  15.7658160
   2.9566570  14.0917860  15.0245520   6.5261590  14.7099880  10.4853420
   6.2852950  14.9774440   9.5983940   7.4664230  14.8805610  10.5404280
  17.7865750  16.7294260  11.2864060  17.2924030  17.1263130  10.5691190
  17.1779040  16.1043470  11.6801340   2.6643590  16.1002540  12.0041480
   2.0703910  15.9687240  12.7431520   2.6567430  15.2640680  11.5383580
  15.4705200  17.3717680   8.5650800  15.0108170  18.1233490   8.1908820
  14.8417660  16.6524150   8.5065600   5.9000920  15.6805920   7.7398930
   6.4165940  15.0693280   7.2147190   6.5498300  16.1834700   8.2309940
   8.6396420  16.5714410   8.5667910   8.9274230  16.3168710   7.6900920
   9.1519640  16.0191770   9.1573480   7.7427650   2.7291360   4.6580450
   6.9302160   2.3548250   4.3176330   8.2469290   1.9736440   4.9601640
   8.7068780  17.4930510  15.9336110   9.6336090  17.2574780  15.9772070
   8.6919210  18.3202510  15.4522140  16.9413840  17.0356080   2.9310360
  17.1166030  16.3493820   2.2871280  16.2435410  17.5603130   2.5387030
  15.2746340  16.7200370  15.7577150  16.0671660  16.2249600  15.5503110
  15.5679490  17.3990510  16.3652760
  73.5702670  73.3449270  70.8351490  90.0000000  90.0000000  90.0000000
